+ 0.1 1 0 ping 64 ------- 0 1.0 4.0 -1 0
- 0.1 1 0 ping 64 ------- 0 1.0 4.0 -1 0
r 0.112102 1 0 ping 64 ------- 0 1.0 4.0 -1 0
+ 0.112102 0 4 ping 64 ------- 0 1.0 4.0 -1 0
- 0.112102 0 4 ping 64 ------- 0 1.0 4.0 -1 0
r 0.122205 0 4 ping 64 ------- 0 1.0 4.0 -1 0
+ 0.122205 4 0 ping 64 ------- 0 4.0 1.0 -1 1
- 0.122205 4 0 ping 64 ------- 0 4.0 1.0 -1 1
r 0.132307 4 0 ping 64 ------- 0 4.0 1.0 -1 1
+ 0.132307 0 1 ping 64 ------- 0 4.0 1.0 -1 1
- 0.132307 0 1 ping 64 ------- 0 4.0 1.0 -1 1
r 0.14441 0 1 ping 64 ------- 0 4.0 1.0 -1 1
+ 0.3 2 0 ping 64 ------- 0 2.0 5.0 -1 2
- 0.3 2 0 ping 64 ------- 0 2.0 5.0 -1 2
r 0.310102 2 0 ping 64 ------- 0 2.0 5.0 -1 2
+ 0.310102 0 5 ping 64 ------- 0 2.0 5.0 -1 2
- 0.310102 0 5 ping 64 ------- 0 2.0 5.0 -1 2
r 0.320205 0 5 ping 64 ------- 0 2.0 5.0 -1 2
+ 0.320205 5 0 ping 64 ------- 0 5.0 2.0 -1 3
- 0.320205 5 0 ping 64 ------- 0 5.0 2.0 -1 3
r 0.330307 5 0 ping 64 ------- 0 5.0 2.0 -1 3
+ 0.330307 0 2 ping 64 ------- 0 5.0 2.0 -1 3
- 0.330307 0 2 ping 64 ------- 0 5.0 2.0 -1 3
r 0.34041 0 2 ping 64 ------- 0 5.0 2.0 -1 3
+ 0.5 3 0 ping 64 ------- 0 3.0 6.0 -1 4
- 0.5 3 0 ping 64 ------- 0 3.0 6.0 -1 4
r 0.510102 3 0 ping 64 ------- 0 3.0 6.0 -1 4
+ 0.510102 0 6 ping 64 ------- 0 3.0 6.0 -1 4
- 0.510102 0 6 ping 64 ------- 0 3.0 6.0 -1 4
r 0.521205 0 6 ping 64 ------- 0 3.0 6.0 -1 4
+ 0.521205 6 0 ping 64 ------- 0 6.0 3.0 -1 5
- 0.521205 6 0 ping 64 ------- 0 6.0 3.0 -1 5
r 0.532307 6 0 ping 64 ------- 0 6.0 3.0 -1 5
+ 0.532307 0 3 ping 64 ------- 0 6.0 3.0 -1 5
- 0.532307 0 3 ping 64 ------- 0 6.0 3.0 -1 5
r 0.54241 0 3 ping 64 ------- 0 6.0 3.0 -1 5
+ 1 4 0 ping 64 ------- 0 4.0 1.0 -1 6
- 1 4 0 ping 64 ------- 0 4.0 1.0 -1 6
r 1.010102 4 0 ping 64 ------- 0 4.0 1.0 -1 6
+ 1.010102 0 1 ping 64 ------- 0 4.0 1.0 -1 6
- 1.010102 0 1 ping 64 ------- 0 4.0 1.0 -1 6
r 1.022205 0 1 ping 64 ------- 0 4.0 1.0 -1 6
+ 1.022205 1 0 ping 64 ------- 0 1.0 4.0 -1 7
- 1.022205 1 0 ping 64 ------- 0 1.0 4.0 -1 7
r 1.034307 1 0 ping 64 ------- 0 1.0 4.0 -1 7
+ 1.034307 0 4 ping 64 ------- 0 1.0 4.0 -1 7
- 1.034307 0 4 ping 64 ------- 0 1.0 4.0 -1 7
r 1.04441 0 4 ping 64 ------- 0 1.0 4.0 -1 7
+ 1.2 5 0 ping 64 ------- 0 5.0 2.0 -1 8
- 1.2 5 0 ping 64 ------- 0 5.0 2.0 -1 8
r 1.210102 5 0 ping 64 ------- 0 5.0 2.0 -1 8
+ 1.210102 0 2 ping 64 ------- 0 5.0 2.0 -1 8
- 1.210102 0 2 ping 64 ------- 0 5.0 2.0 -1 8
r 1.220205 0 2 ping 64 ------- 0 5.0 2.0 -1 8
+ 1.220205 2 0 ping 64 ------- 0 2.0 5.0 -1 9
- 1.220205 2 0 ping 64 ------- 0 2.0 5.0 -1 9
r 1.230307 2 0 ping 64 ------- 0 2.0 5.0 -1 9
+ 1.230307 0 5 ping 64 ------- 0 2.0 5.0 -1 9
- 1.230307 0 5 ping 64 ------- 0 2.0 5.0 -1 9
r 1.24041 0 5 ping 64 ------- 0 2.0 5.0 -1 9
+ 1.4 6 0 ping 64 ------- 0 6.0 3.0 -1 10
- 1.4 6 0 ping 64 ------- 0 6.0 3.0 -1 10
r 1.411102 6 0 ping 64 ------- 0 6.0 3.0 -1 10
+ 1.411102 0 3 ping 64 ------- 0 6.0 3.0 -1 10
- 1.411102 0 3 ping 64 ------- 0 6.0 3.0 -1 10
r 1.421205 0 3 ping 64 ------- 0 6.0 3.0 -1 10
+ 1.421205 3 0 ping 64 ------- 0 3.0 6.0 -1 11
- 1.421205 3 0 ping 64 ------- 0 3.0 6.0 -1 11
r 1.431307 3 0 ping 64 ------- 0 3.0 6.0 -1 11
+ 1.431307 0 6 ping 64 ------- 0 3.0 6.0 -1 11
- 1.431307 0 6 ping 64 ------- 0 3.0 6.0 -1 11
r 1.44241 0 6 ping 64 ------- 0 3.0 6.0 -1 11
