+ 0.1 0 2 tcp 40 ------- 1 0.0 3.0 0 0
- 0.1 0 2 tcp 40 ------- 1 0.0 3.0 0 0
r 0.11008 0 2 tcp 40 ------- 1 0.0 3.0 0 0
+ 0.11008 2 3 tcp 40 ------- 1 0.0 3.0 0 0
- 0.11008 2 3 tcp 40 ------- 1 0.0 3.0 0 0
r 0.12016 2 3 tcp 40 ------- 1 0.0 3.0 0 0
+ 0.12016 3 2 ack 40 ------- 1 3.0 0.0 0 1
- 0.12016 3 2 ack 40 ------- 1 3.0 0.0 0 1
r 0.13024 3 2 ack 40 ------- 1 3.0 0.0 0 1
+ 0.13024 2 0 ack 40 ------- 1 3.0 0.0 0 1
- 0.13024 2 0 ack 40 ------- 1 3.0 0.0 0 1
r 0.14032 2 0 ack 40 ------- 1 3.0 0.0 0 1
+ 0.14032 0 2 tcp 1040 ------- 1 0.0 3.0 1 2
- 0.14032 0 2 tcp 1040 ------- 1 0.0 3.0 1 2
+ 0.14032 0 2 tcp 1040 ------- 1 0.0 3.0 2 3
- 0.1424 0 2 tcp 1040 ------- 1 0.0 3.0 2 3
r 0.1524 0 2 tcp 1040 ------- 1 0.0 3.0 1 2
+ 0.1524 2 3 tcp 1040 ------- 1 0.0 3.0 1 2
- 0.1524 2 3 tcp 1040 ------- 1 0.0 3.0 1 2
r 0.15448 0 2 tcp 1040 ------- 1 0.0 3.0 2 3
+ 0.15448 2 3 tcp 1040 ------- 1 0.0 3.0 2 3
- 0.15448 2 3 tcp 1040 ------- 1 0.0 3.0 2 3
r 0.16448 2 3 tcp 1040 ------- 1 0.0 3.0 1 2
+ 0.16448 3 2 ack 40 ------- 1 3.0 0.0 1 4
- 0.16448 3 2 ack 40 ------- 1 3.0 0.0 1 4
r 0.16656 2 3 tcp 1040 ------- 1 0.0 3.0 2 3
+ 0.16656 3 2 ack 40 ------- 1 3.0 0.0 2 5
- 0.16656 3 2 ack 40 ------- 1 3.0 0.0 2 5
r 0.17456 3 2 ack 40 ------- 1 3.0 0.0 1 4
+ 0.17456 2 0 ack 40 ------- 1 3.0 0.0 1 4
- 0.17456 2 0 ack 40 ------- 1 3.0 0.0 1 4
r 0.17664 3 2 ack 40 ------- 1 3.0 0.0 2 5
+ 0.17664 2 0 ack 40 ------- 1 3.0 0.0 2 5
- 0.17664 2 0 ack 40 ------- 1 3.0 0.0 2 5
r 0.18464 2 0 ack 40 ------- 1 3.0 0.0 1 4
+ 0.18464 0 2 tcp 1040 ------- 1 0.0 3.0 3 6
- 0.18464 0 2 tcp 1040 ------- 1 0.0 3.0 3 6
+ 0.18464 0 2 tcp 1040 ------- 1 0.0 3.0 4 7
r 0.18672 2 0 ack 40 ------- 1 3.0 0.0 2 5
+ 0.18672 0 2 tcp 1040 ------- 1 0.0 3.0 5 8
+ 0.18672 0 2 tcp 1040 ------- 1 0.0 3.0 6 9
- 0.18672 0 2 tcp 1040 ------- 1 0.0 3.0 4 7
- 0.1888 0 2 tcp 1040 ------- 1 0.0 3.0 5 8
- 0.19088 0 2 tcp 1040 ------- 1 0.0 3.0 6 9
r 0.19672 0 2 tcp 1040 ------- 1 0.0 3.0 3 6
+ 0.19672 2 3 tcp 1040 ------- 1 0.0 3.0 3 6
- 0.19672 2 3 tcp 1040 ------- 1 0.0 3.0 3 6
r 0.1988 0 2 tcp 1040 ------- 1 0.0 3.0 4 7
+ 0.1988 2 3 tcp 1040 ------- 1 0.0 3.0 4 7
- 0.1988 2 3 tcp 1040 ------- 1 0.0 3.0 4 7
+ 0.2 1 2 cbr 500 ------- 0 1.0 3.1 0 10
- 0.2 1 2 cbr 500 ------- 0 1.0 3.1 0 10
r 0.20088 0 2 tcp 1040 ------- 1 0.0 3.0 5 8
+ 0.20088 2 3 tcp 1040 ------- 1 0.0 3.0 5 8
- 0.20088 2 3 tcp 1040 ------- 1 0.0 3.0 5 8
r 0.20296 0 2 tcp 1040 ------- 1 0.0 3.0 6 9
+ 0.20296 2 3 tcp 1040 ------- 1 0.0 3.0 6 9
- 0.20296 2 3 tcp 1040 ------- 1 0.0 3.0 6 9
+ 0.205 1 2 cbr 500 ------- 0 1.0 3.1 1 11
- 0.205 1 2 cbr 500 ------- 0 1.0 3.1 1 11
r 0.2088 2 3 tcp 1040 ------- 1 0.0 3.0 3 6
+ 0.2088 3 2 ack 40 ------- 1 3.0 0.0 3 12
- 0.2088 3 2 ack 40 ------- 1 3.0 0.0 3 12
+ 0.21 1 2 cbr 500 ------- 0 1.0 3.1 2 13
- 0.21 1 2 cbr 500 ------- 0 1.0 3.1 2 13
r 0.21088 2 3 tcp 1040 ------- 1 0.0 3.0 4 7
+ 0.21088 3 2 ack 40 ------- 1 3.0 0.0 4 14
- 0.21088 3 2 ack 40 ------- 1 3.0 0.0 4 14
r 0.211 1 2 cbr 500 ------- 0 1.0 3.1 0 10
+ 0.211 2 3 cbr 500 ------- 0 1.0 3.1 0 10
- 0.211 2 3 cbr 500 ------- 0 1.0 3.1 0 10
r 0.21296 2 3 tcp 1040 ------- 1 0.0 3.0 5 8
+ 0.21296 3 2 ack 40 ------- 1 3.0 0.0 5 15
- 0.21296 3 2 ack 40 ------- 1 3.0 0.0 5 15
+ 0.215 1 2 cbr 500 ------- 0 1.0 3.1 3 16
- 0.215 1 2 cbr 500 ------- 0 1.0 3.1 3 16
r 0.21504 2 3 tcp 1040 ------- 1 0.0 3.0 6 9
+ 0.21504 3 2 ack 40 ------- 1 3.0 0.0 6 17
- 0.21504 3 2 ack 40 ------- 1 3.0 0.0 6 17
r 0.216 1 2 cbr 500 ------- 0 1.0 3.1 1 11
+ 0.216 2 3 cbr 500 ------- 0 1.0 3.1 1 11
- 0.216 2 3 cbr 500 ------- 0 1.0 3.1 1 11
r 0.21888 3 2 ack 40 ------- 1 3.0 0.0 3 12
+ 0.21888 2 0 ack 40 ------- 1 3.0 0.0 3 12
- 0.21888 2 0 ack 40 ------- 1 3.0 0.0 3 12
+ 0.22 1 2 cbr 500 ------- 0 1.0 3.1 4 18
- 0.22 1 2 cbr 500 ------- 0 1.0 3.1 4 18
r 0.22096 3 2 ack 40 ------- 1 3.0 0.0 4 14
+ 0.22096 2 0 ack 40 ------- 1 3.0 0.0 4 14
- 0.22096 2 0 ack 40 ------- 1 3.0 0.0 4 14
r 0.221 1 2 cbr 500 ------- 0 1.0 3.1 2 13
+ 0.221 2 3 cbr 500 ------- 0 1.0 3.1 2 13
- 0.221 2 3 cbr 500 ------- 0 1.0 3.1 2 13
r 0.222 2 3 cbr 500 ------- 0 1.0 3.1 0 10
r 0.22304 3 2 ack 40 ------- 1 3.0 0.0 5 15
+ 0.22304 2 0 ack 40 ------- 1 3.0 0.0 5 15
- 0.22304 2 0 ack 40 ------- 1 3.0 0.0 5 15
+ 0.225 1 2 cbr 500 ------- 0 1.0 3.1 5 19
- 0.225 1 2 cbr 500 ------- 0 1.0 3.1 5 19
r 0.22512 3 2 ack 40 ------- 1 3.0 0.0 6 17
+ 0.22512 2 0 ack 40 ------- 1 3.0 0.0 6 17
- 0.22512 2 0 ack 40 ------- 1 3.0 0.0 6 17
r 0.226 1 2 cbr 500 ------- 0 1.0 3.1 3 16
+ 0.226 2 3 cbr 500 ------- 0 1.0 3.1 3 16
- 0.226 2 3 cbr 500 ------- 0 1.0 3.1 3 16
r 0.227 2 3 cbr 500 ------- 0 1.0 3.1 1 11
r 0.22896 2 0 ack 40 ------- 1 3.0 0.0 3 12
+ 0.22896 0 2 tcp 1040 ------- 1 0.0 3.0 7 20
- 0.22896 0 2 tcp 1040 ------- 1 0.0 3.0 7 20
+ 0.22896 0 2 tcp 1040 ------- 1 0.0 3.0 8 21
+ 0.23 1 2 cbr 500 ------- 0 1.0 3.1 6 22
- 0.23 1 2 cbr 500 ------- 0 1.0 3.1 6 22
r 0.231 1 2 cbr 500 ------- 0 1.0 3.1 4 18
+ 0.231 2 3 cbr 500 ------- 0 1.0 3.1 4 18
- 0.231 2 3 cbr 500 ------- 0 1.0 3.1 4 18
r 0.23104 2 0 ack 40 ------- 1 3.0 0.0 4 14
+ 0.23104 0 2 tcp 1040 ------- 1 0.0 3.0 9 23
+ 0.23104 0 2 tcp 1040 ------- 1 0.0 3.0 10 24
- 0.23104 0 2 tcp 1040 ------- 1 0.0 3.0 8 21
r 0.232 2 3 cbr 500 ------- 0 1.0 3.1 2 13
r 0.23312 2 0 ack 40 ------- 1 3.0 0.0 5 15
+ 0.23312 0 2 tcp 1040 ------- 1 0.0 3.0 11 25
+ 0.23312 0 2 tcp 1040 ------- 1 0.0 3.0 12 26
- 0.23312 0 2 tcp 1040 ------- 1 0.0 3.0 9 23
+ 0.235 1 2 cbr 500 ------- 0 1.0 3.1 7 27
- 0.235 1 2 cbr 500 ------- 0 1.0 3.1 7 27
r 0.2352 2 0 ack 40 ------- 1 3.0 0.0 6 17
+ 0.2352 0 2 tcp 1040 ------- 1 0.0 3.0 13 28
+ 0.2352 0 2 tcp 1040 ------- 1 0.0 3.0 14 29
- 0.2352 0 2 tcp 1040 ------- 1 0.0 3.0 10 24
r 0.236 1 2 cbr 500 ------- 0 1.0 3.1 5 19
+ 0.236 2 3 cbr 500 ------- 0 1.0 3.1 5 19
- 0.236 2 3 cbr 500 ------- 0 1.0 3.1 5 19
r 0.237 2 3 cbr 500 ------- 0 1.0 3.1 3 16
- 0.23728 0 2 tcp 1040 ------- 1 0.0 3.0 11 25
- 0.23936 0 2 tcp 1040 ------- 1 0.0 3.0 12 26
+ 0.24 1 2 cbr 500 ------- 0 1.0 3.1 8 30
- 0.24 1 2 cbr 500 ------- 0 1.0 3.1 8 30
r 0.241 1 2 cbr 500 ------- 0 1.0 3.1 6 22
+ 0.241 2 3 cbr 500 ------- 0 1.0 3.1 6 22
- 0.241 2 3 cbr 500 ------- 0 1.0 3.1 6 22
r 0.24104 0 2 tcp 1040 ------- 1 0.0 3.0 7 20
+ 0.24104 2 3 tcp 1040 ------- 1 0.0 3.0 7 20
- 0.24144 0 2 tcp 1040 ------- 1 0.0 3.0 13 28
r 0.242 2 3 cbr 500 ------- 0 1.0 3.1 4 18
- 0.242 2 3 tcp 1040 ------- 1 0.0 3.0 7 20
r 0.24312 0 2 tcp 1040 ------- 1 0.0 3.0 8 21
+ 0.24312 2 3 tcp 1040 ------- 1 0.0 3.0 8 21
- 0.24352 0 2 tcp 1040 ------- 1 0.0 3.0 14 29
- 0.24408 2 3 tcp 1040 ------- 1 0.0 3.0 8 21
+ 0.245 1 2 cbr 500 ------- 0 1.0 3.1 9 31
- 0.245 1 2 cbr 500 ------- 0 1.0 3.1 9 31
r 0.2452 0 2 tcp 1040 ------- 1 0.0 3.0 9 23
+ 0.2452 2 3 tcp 1040 ------- 1 0.0 3.0 9 23
r 0.246 1 2 cbr 500 ------- 0 1.0 3.1 7 27
+ 0.246 2 3 cbr 500 ------- 0 1.0 3.1 7 27
- 0.24616 2 3 tcp 1040 ------- 1 0.0 3.0 9 23
r 0.247 2 3 cbr 500 ------- 0 1.0 3.1 5 19
r 0.24728 0 2 tcp 1040 ------- 1 0.0 3.0 10 24
+ 0.24728 2 3 tcp 1040 ------- 1 0.0 3.0 10 24
- 0.24824 2 3 cbr 500 ------- 0 1.0 3.1 7 27
- 0.24924 2 3 tcp 1040 ------- 1 0.0 3.0 10 24
r 0.24936 0 2 tcp 1040 ------- 1 0.0 3.0 11 25
+ 0.24936 2 3 tcp 1040 ------- 1 0.0 3.0 11 25
+ 0.25 1 2 cbr 500 ------- 0 1.0 3.1 10 32
- 0.25 1 2 cbr 500 ------- 0 1.0 3.1 10 32
r 0.251 1 2 cbr 500 ------- 0 1.0 3.1 8 30
+ 0.251 2 3 cbr 500 ------- 0 1.0 3.1 8 30
- 0.25132 2 3 tcp 1040 ------- 1 0.0 3.0 11 25
r 0.25144 0 2 tcp 1040 ------- 1 0.0 3.0 12 26
+ 0.25144 2 3 tcp 1040 ------- 1 0.0 3.0 12 26
r 0.252 2 3 cbr 500 ------- 0 1.0 3.1 6 22
- 0.2534 2 3 cbr 500 ------- 0 1.0 3.1 8 30
r 0.25352 0 2 tcp 1040 ------- 1 0.0 3.0 13 28
+ 0.25352 2 3 tcp 1040 ------- 1 0.0 3.0 13 28
r 0.25408 2 3 tcp 1040 ------- 1 0.0 3.0 7 20
+ 0.25408 3 2 ack 40 ------- 1 3.0 0.0 7 33
- 0.25408 3 2 ack 40 ------- 1 3.0 0.0 7 33
- 0.2544 2 3 tcp 1040 ------- 1 0.0 3.0 12 26
+ 0.255 1 2 cbr 500 ------- 0 1.0 3.1 11 34
- 0.255 1 2 cbr 500 ------- 0 1.0 3.1 11 34
r 0.2556 0 2 tcp 1040 ------- 1 0.0 3.0 14 29
+ 0.2556 2 3 tcp 1040 ------- 1 0.0 3.0 14 29
r 0.256 1 2 cbr 500 ------- 0 1.0 3.1 9 31
+ 0.256 2 3 cbr 500 ------- 0 1.0 3.1 9 31
r 0.25616 2 3 tcp 1040 ------- 1 0.0 3.0 8 21
+ 0.25616 3 2 ack 40 ------- 1 3.0 0.0 8 35
- 0.25616 3 2 ack 40 ------- 1 3.0 0.0 8 35
- 0.25648 2 3 tcp 1040 ------- 1 0.0 3.0 13 28
r 0.25824 2 3 tcp 1040 ------- 1 0.0 3.0 9 23
+ 0.25824 3 2 ack 40 ------- 1 3.0 0.0 9 36
- 0.25824 3 2 ack 40 ------- 1 3.0 0.0 9 36
- 0.25856 2 3 tcp 1040 ------- 1 0.0 3.0 14 29
r 0.25924 2 3 cbr 500 ------- 0 1.0 3.1 7 27
+ 0.26 1 2 cbr 500 ------- 0 1.0 3.1 12 37
- 0.26 1 2 cbr 500 ------- 0 1.0 3.1 12 37
- 0.26064 2 3 cbr 500 ------- 0 1.0 3.1 9 31
r 0.261 1 2 cbr 500 ------- 0 1.0 3.1 10 32
+ 0.261 2 3 cbr 500 ------- 0 1.0 3.1 10 32
r 0.26132 2 3 tcp 1040 ------- 1 0.0 3.0 10 24
+ 0.26132 3 2 ack 40 ------- 1 3.0 0.0 10 38
- 0.26132 3 2 ack 40 ------- 1 3.0 0.0 10 38
- 0.26164 2 3 cbr 500 ------- 0 1.0 3.1 10 32
r 0.2634 2 3 tcp 1040 ------- 1 0.0 3.0 11 25
+ 0.2634 3 2 ack 40 ------- 1 3.0 0.0 11 39
- 0.2634 3 2 ack 40 ------- 1 3.0 0.0 11 39
r 0.26416 3 2 ack 40 ------- 1 3.0 0.0 7 33
+ 0.26416 2 0 ack 40 ------- 1 3.0 0.0 7 33
- 0.26416 2 0 ack 40 ------- 1 3.0 0.0 7 33
r 0.2644 2 3 cbr 500 ------- 0 1.0 3.1 8 30
+ 0.265 1 2 cbr 500 ------- 0 1.0 3.1 13 40
- 0.265 1 2 cbr 500 ------- 0 1.0 3.1 13 40
r 0.266 1 2 cbr 500 ------- 0 1.0 3.1 11 34
+ 0.266 2 3 cbr 500 ------- 0 1.0 3.1 11 34
- 0.266 2 3 cbr 500 ------- 0 1.0 3.1 11 34
r 0.26624 3 2 ack 40 ------- 1 3.0 0.0 8 35
+ 0.26624 2 0 ack 40 ------- 1 3.0 0.0 8 35
- 0.26624 2 0 ack 40 ------- 1 3.0 0.0 8 35
r 0.26648 2 3 tcp 1040 ------- 1 0.0 3.0 12 26
+ 0.26648 3 2 ack 40 ------- 1 3.0 0.0 12 41
- 0.26648 3 2 ack 40 ------- 1 3.0 0.0 12 41
r 0.26832 3 2 ack 40 ------- 1 3.0 0.0 9 36
+ 0.26832 2 0 ack 40 ------- 1 3.0 0.0 9 36
- 0.26832 2 0 ack 40 ------- 1 3.0 0.0 9 36
r 0.26856 2 3 tcp 1040 ------- 1 0.0 3.0 13 28
+ 0.26856 3 2 ack 40 ------- 1 3.0 0.0 13 42
- 0.26856 3 2 ack 40 ------- 1 3.0 0.0 13 42
+ 0.27 1 2 cbr 500 ------- 0 1.0 3.1 14 43
- 0.27 1 2 cbr 500 ------- 0 1.0 3.1 14 43
r 0.27064 2 3 tcp 1040 ------- 1 0.0 3.0 14 29
+ 0.27064 3 2 ack 40 ------- 1 3.0 0.0 14 44
- 0.27064 3 2 ack 40 ------- 1 3.0 0.0 14 44
r 0.271 1 2 cbr 500 ------- 0 1.0 3.1 12 37
+ 0.271 2 3 cbr 500 ------- 0 1.0 3.1 12 37
- 0.271 2 3 cbr 500 ------- 0 1.0 3.1 12 37
r 0.2714 3 2 ack 40 ------- 1 3.0 0.0 10 38
+ 0.2714 2 0 ack 40 ------- 1 3.0 0.0 10 38
- 0.2714 2 0 ack 40 ------- 1 3.0 0.0 10 38
r 0.27164 2 3 cbr 500 ------- 0 1.0 3.1 9 31
r 0.27264 2 3 cbr 500 ------- 0 1.0 3.1 10 32
r 0.27348 3 2 ack 40 ------- 1 3.0 0.0 11 39
+ 0.27348 2 0 ack 40 ------- 1 3.0 0.0 11 39
- 0.27348 2 0 ack 40 ------- 1 3.0 0.0 11 39
r 0.27424 2 0 ack 40 ------- 1 3.0 0.0 7 33
+ 0.27424 0 2 tcp 1040 ------- 1 0.0 3.0 15 45
- 0.27424 0 2 tcp 1040 ------- 1 0.0 3.0 15 45
+ 0.27424 0 2 tcp 1040 ------- 1 0.0 3.0 16 46
+ 0.275 1 2 cbr 500 ------- 0 1.0 3.1 15 47
- 0.275 1 2 cbr 500 ------- 0 1.0 3.1 15 47
r 0.276 1 2 cbr 500 ------- 0 1.0 3.1 13 40
+ 0.276 2 3 cbr 500 ------- 0 1.0 3.1 13 40
- 0.276 2 3 cbr 500 ------- 0 1.0 3.1 13 40
r 0.27632 2 0 ack 40 ------- 1 3.0 0.0 8 35
+ 0.27632 0 2 tcp 1040 ------- 1 0.0 3.0 17 48
+ 0.27632 0 2 tcp 1040 ------- 1 0.0 3.0 18 49
- 0.27632 0 2 tcp 1040 ------- 1 0.0 3.0 16 46
r 0.27656 3 2 ack 40 ------- 1 3.0 0.0 12 41
+ 0.27656 2 0 ack 40 ------- 1 3.0 0.0 12 41
- 0.27656 2 0 ack 40 ------- 1 3.0 0.0 12 41
r 0.277 2 3 cbr 500 ------- 0 1.0 3.1 11 34
r 0.2784 2 0 ack 40 ------- 1 3.0 0.0 9 36
+ 0.2784 0 2 tcp 1040 ------- 1 0.0 3.0 19 50
+ 0.2784 0 2 tcp 1040 ------- 1 0.0 3.0 20 51
- 0.2784 0 2 tcp 1040 ------- 1 0.0 3.0 17 48
r 0.27864 3 2 ack 40 ------- 1 3.0 0.0 13 42
+ 0.27864 2 0 ack 40 ------- 1 3.0 0.0 13 42
- 0.27864 2 0 ack 40 ------- 1 3.0 0.0 13 42
+ 0.28 1 2 cbr 500 ------- 0 1.0 3.1 16 52
- 0.28 1 2 cbr 500 ------- 0 1.0 3.1 16 52
- 0.28048 0 2 tcp 1040 ------- 1 0.0 3.0 18 49
r 0.28072 3 2 ack 40 ------- 1 3.0 0.0 14 44
+ 0.28072 2 0 ack 40 ------- 1 3.0 0.0 14 44
- 0.28072 2 0 ack 40 ------- 1 3.0 0.0 14 44
r 0.281 1 2 cbr 500 ------- 0 1.0 3.1 14 43
+ 0.281 2 3 cbr 500 ------- 0 1.0 3.1 14 43
- 0.281 2 3 cbr 500 ------- 0 1.0 3.1 14 43
r 0.28148 2 0 ack 40 ------- 1 3.0 0.0 10 38
+ 0.28148 0 2 tcp 1040 ------- 1 0.0 3.0 21 53
+ 0.28148 0 2 tcp 1040 ------- 1 0.0 3.0 22 54
r 0.282 2 3 cbr 500 ------- 0 1.0 3.1 12 37
- 0.28256 0 2 tcp 1040 ------- 1 0.0 3.0 19 50
r 0.28356 2 0 ack 40 ------- 1 3.0 0.0 11 39
+ 0.28356 0 2 tcp 1040 ------- 1 0.0 3.0 23 55
+ 0.28356 0 2 tcp 1040 ------- 1 0.0 3.0 24 56
- 0.28464 0 2 tcp 1040 ------- 1 0.0 3.0 20 51
+ 0.285 1 2 cbr 500 ------- 0 1.0 3.1 17 57
- 0.285 1 2 cbr 500 ------- 0 1.0 3.1 17 57
r 0.286 1 2 cbr 500 ------- 0 1.0 3.1 15 47
+ 0.286 2 3 cbr 500 ------- 0 1.0 3.1 15 47
- 0.286 2 3 cbr 500 ------- 0 1.0 3.1 15 47
r 0.28632 0 2 tcp 1040 ------- 1 0.0 3.0 15 45
+ 0.28632 2 3 tcp 1040 ------- 1 0.0 3.0 15 45
r 0.28664 2 0 ack 40 ------- 1 3.0 0.0 12 41
+ 0.28664 0 2 tcp 1040 ------- 1 0.0 3.0 25 58
+ 0.28664 0 2 tcp 1040 ------- 1 0.0 3.0 26 59
- 0.28672 0 2 tcp 1040 ------- 1 0.0 3.0 21 53
r 0.287 2 3 cbr 500 ------- 0 1.0 3.1 13 40
- 0.287 2 3 tcp 1040 ------- 1 0.0 3.0 15 45
r 0.2884 0 2 tcp 1040 ------- 1 0.0 3.0 16 46
+ 0.2884 2 3 tcp 1040 ------- 1 0.0 3.0 16 46
r 0.28872 2 0 ack 40 ------- 1 3.0 0.0 13 42
+ 0.28872 0 2 tcp 1040 ------- 1 0.0 3.0 27 60
+ 0.28872 0 2 tcp 1040 ------- 1 0.0 3.0 28 61
- 0.2888 0 2 tcp 1040 ------- 1 0.0 3.0 22 54
- 0.28908 2 3 tcp 1040 ------- 1 0.0 3.0 16 46
+ 0.29 1 2 cbr 500 ------- 0 1.0 3.1 18 62
- 0.29 1 2 cbr 500 ------- 0 1.0 3.1 18 62
r 0.29048 0 2 tcp 1040 ------- 1 0.0 3.0 17 48
+ 0.29048 2 3 tcp 1040 ------- 1 0.0 3.0 17 48
r 0.2908 2 0 ack 40 ------- 1 3.0 0.0 14 44
+ 0.2908 0 2 tcp 1040 ------- 1 0.0 3.0 29 63
+ 0.2908 0 2 tcp 1040 ------- 1 0.0 3.0 30 64
- 0.29088 0 2 tcp 1040 ------- 1 0.0 3.0 23 55
r 0.291 1 2 cbr 500 ------- 0 1.0 3.1 16 52
+ 0.291 2 3 cbr 500 ------- 0 1.0 3.1 16 52
- 0.29116 2 3 tcp 1040 ------- 1 0.0 3.0 17 48
r 0.292 2 3 cbr 500 ------- 0 1.0 3.1 14 43
r 0.29256 0 2 tcp 1040 ------- 1 0.0 3.0 18 49
+ 0.29256 2 3 tcp 1040 ------- 1 0.0 3.0 18 49
- 0.29296 0 2 tcp 1040 ------- 1 0.0 3.0 24 56
- 0.29324 2 3 cbr 500 ------- 0 1.0 3.1 16 52
- 0.29424 2 3 tcp 1040 ------- 1 0.0 3.0 18 49
r 0.29464 0 2 tcp 1040 ------- 1 0.0 3.0 19 50
+ 0.29464 2 3 tcp 1040 ------- 1 0.0 3.0 19 50
+ 0.295 1 2 cbr 500 ------- 0 1.0 3.1 19 65
- 0.295 1 2 cbr 500 ------- 0 1.0 3.1 19 65
- 0.29504 0 2 tcp 1040 ------- 1 0.0 3.0 25 58
r 0.296 1 2 cbr 500 ------- 0 1.0 3.1 17 57
+ 0.296 2 3 cbr 500 ------- 0 1.0 3.1 17 57
- 0.29632 2 3 tcp 1040 ------- 1 0.0 3.0 19 50
r 0.29672 0 2 tcp 1040 ------- 1 0.0 3.0 20 51
+ 0.29672 2 3 tcp 1040 ------- 1 0.0 3.0 20 51
r 0.297 2 3 cbr 500 ------- 0 1.0 3.1 15 47
- 0.29712 0 2 tcp 1040 ------- 1 0.0 3.0 26 59
- 0.2984 2 3 cbr 500 ------- 0 1.0 3.1 17 57
r 0.2988 0 2 tcp 1040 ------- 1 0.0 3.0 21 53
+ 0.2988 2 3 tcp 1040 ------- 1 0.0 3.0 21 53
r 0.29908 2 3 tcp 1040 ------- 1 0.0 3.0 15 45
+ 0.29908 3 2 ack 40 ------- 1 3.0 0.0 15 66
- 0.29908 3 2 ack 40 ------- 1 3.0 0.0 15 66
- 0.2992 0 2 tcp 1040 ------- 1 0.0 3.0 27 60
- 0.2994 2 3 tcp 1040 ------- 1 0.0 3.0 20 51
+ 0.3 1 2 cbr 500 ------- 0 1.0 3.1 20 67
- 0.3 1 2 cbr 500 ------- 0 1.0 3.1 20 67
r 0.30088 0 2 tcp 1040 ------- 1 0.0 3.0 22 54
+ 0.30088 2 3 tcp 1040 ------- 1 0.0 3.0 22 54
r 0.301 1 2 cbr 500 ------- 0 1.0 3.1 18 62
+ 0.301 2 3 cbr 500 ------- 0 1.0 3.1 18 62
r 0.30116 2 3 tcp 1040 ------- 1 0.0 3.0 16 46
+ 0.30116 3 2 ack 40 ------- 1 3.0 0.0 16 68
- 0.30116 3 2 ack 40 ------- 1 3.0 0.0 16 68
- 0.30128 0 2 tcp 1040 ------- 1 0.0 3.0 28 61
- 0.30148 2 3 tcp 1040 ------- 1 0.0 3.0 21 53
r 0.30296 0 2 tcp 1040 ------- 1 0.0 3.0 23 55
+ 0.30296 2 3 tcp 1040 ------- 1 0.0 3.0 23 55
r 0.30324 2 3 tcp 1040 ------- 1 0.0 3.0 17 48
+ 0.30324 3 2 ack 40 ------- 1 3.0 0.0 17 69
- 0.30324 3 2 ack 40 ------- 1 3.0 0.0 17 69
- 0.30336 0 2 tcp 1040 ------- 1 0.0 3.0 29 63
- 0.30356 2 3 tcp 1040 ------- 1 0.0 3.0 22 54
r 0.30424 2 3 cbr 500 ------- 0 1.0 3.1 16 52
+ 0.305 1 2 cbr 500 ------- 0 1.0 3.1 21 70
- 0.305 1 2 cbr 500 ------- 0 1.0 3.1 21 70
r 0.30504 0 2 tcp 1040 ------- 1 0.0 3.0 24 56
+ 0.30504 2 3 tcp 1040 ------- 1 0.0 3.0 24 56
- 0.30544 0 2 tcp 1040 ------- 1 0.0 3.0 30 64
- 0.30564 2 3 cbr 500 ------- 0 1.0 3.1 18 62
r 0.306 1 2 cbr 500 ------- 0 1.0 3.1 19 65
+ 0.306 2 3 cbr 500 ------- 0 1.0 3.1 19 65
r 0.30632 2 3 tcp 1040 ------- 1 0.0 3.0 18 49
+ 0.30632 3 2 ack 40 ------- 1 3.0 0.0 18 71
- 0.30632 3 2 ack 40 ------- 1 3.0 0.0 18 71
- 0.30664 2 3 tcp 1040 ------- 1 0.0 3.0 23 55
r 0.30712 0 2 tcp 1040 ------- 1 0.0 3.0 25 58
+ 0.30712 2 3 tcp 1040 ------- 1 0.0 3.0 25 58
r 0.3084 2 3 tcp 1040 ------- 1 0.0 3.0 19 50
+ 0.3084 3 2 ack 40 ------- 1 3.0 0.0 19 72
- 0.3084 3 2 ack 40 ------- 1 3.0 0.0 19 72
- 0.30872 2 3 tcp 1040 ------- 1 0.0 3.0 24 56
r 0.30916 3 2 ack 40 ------- 1 3.0 0.0 15 66
+ 0.30916 2 0 ack 40 ------- 1 3.0 0.0 15 66
- 0.30916 2 0 ack 40 ------- 1 3.0 0.0 15 66
r 0.3092 0 2 tcp 1040 ------- 1 0.0 3.0 26 59
+ 0.3092 2 3 tcp 1040 ------- 1 0.0 3.0 26 59
r 0.3094 2 3 cbr 500 ------- 0 1.0 3.1 17 57
+ 0.31 1 2 cbr 500 ------- 0 1.0 3.1 22 73
- 0.31 1 2 cbr 500 ------- 0 1.0 3.1 22 73
- 0.3108 2 3 cbr 500 ------- 0 1.0 3.1 19 65
r 0.311 1 2 cbr 500 ------- 0 1.0 3.1 20 67
+ 0.311 2 3 cbr 500 ------- 0 1.0 3.1 20 67
r 0.31124 3 2 ack 40 ------- 1 3.0 0.0 16 68
+ 0.31124 2 0 ack 40 ------- 1 3.0 0.0 16 68
- 0.31124 2 0 ack 40 ------- 1 3.0 0.0 16 68
r 0.31128 0 2 tcp 1040 ------- 1 0.0 3.0 27 60
+ 0.31128 2 3 tcp 1040 ------- 1 0.0 3.0 27 60
r 0.31148 2 3 tcp 1040 ------- 1 0.0 3.0 20 51
+ 0.31148 3 2 ack 40 ------- 1 3.0 0.0 20 74
- 0.31148 3 2 ack 40 ------- 1 3.0 0.0 20 74
- 0.3118 2 3 tcp 1040 ------- 1 0.0 3.0 25 58
r 0.31332 3 2 ack 40 ------- 1 3.0 0.0 17 69
+ 0.31332 2 0 ack 40 ------- 1 3.0 0.0 17 69
- 0.31332 2 0 ack 40 ------- 1 3.0 0.0 17 69
r 0.31336 0 2 tcp 1040 ------- 1 0.0 3.0 28 61
+ 0.31336 2 3 tcp 1040 ------- 1 0.0 3.0 28 61
r 0.31356 2 3 tcp 1040 ------- 1 0.0 3.0 21 53
+ 0.31356 3 2 ack 40 ------- 1 3.0 0.0 21 75
- 0.31356 3 2 ack 40 ------- 1 3.0 0.0 21 75
- 0.31388 2 3 tcp 1040 ------- 1 0.0 3.0 26 59
+ 0.315 1 2 cbr 500 ------- 0 1.0 3.1 23 76
- 0.315 1 2 cbr 500 ------- 0 1.0 3.1 23 76
r 0.31544 0 2 tcp 1040 ------- 1 0.0 3.0 29 63
+ 0.31544 2 3 tcp 1040 ------- 1 0.0 3.0 29 63
r 0.31564 2 3 tcp 1040 ------- 1 0.0 3.0 22 54
+ 0.31564 3 2 ack 40 ------- 1 3.0 0.0 22 77
- 0.31564 3 2 ack 40 ------- 1 3.0 0.0 22 77
- 0.31596 2 3 cbr 500 ------- 0 1.0 3.1 20 67
r 0.316 1 2 cbr 500 ------- 0 1.0 3.1 21 70
+ 0.316 2 3 cbr 500 ------- 0 1.0 3.1 21 70
r 0.3164 3 2 ack 40 ------- 1 3.0 0.0 18 71
+ 0.3164 2 0 ack 40 ------- 1 3.0 0.0 18 71
- 0.3164 2 0 ack 40 ------- 1 3.0 0.0 18 71
r 0.31664 2 3 cbr 500 ------- 0 1.0 3.1 18 62
- 0.31696 2 3 tcp 1040 ------- 1 0.0 3.0 27 60
r 0.31752 0 2 tcp 1040 ------- 1 0.0 3.0 30 64
+ 0.31752 2 3 tcp 1040 ------- 1 0.0 3.0 30 64
r 0.31848 3 2 ack 40 ------- 1 3.0 0.0 19 72
+ 0.31848 2 0 ack 40 ------- 1 3.0 0.0 19 72
- 0.31848 2 0 ack 40 ------- 1 3.0 0.0 19 72
r 0.31872 2 3 tcp 1040 ------- 1 0.0 3.0 23 55
+ 0.31872 3 2 ack 40 ------- 1 3.0 0.0 23 78
- 0.31872 3 2 ack 40 ------- 1 3.0 0.0 23 78
- 0.31904 2 3 tcp 1040 ------- 1 0.0 3.0 28 61
r 0.31924 2 0 ack 40 ------- 1 3.0 0.0 15 66
+ 0.31924 0 2 tcp 1040 ------- 1 0.0 3.0 31 79
- 0.31924 0 2 tcp 1040 ------- 1 0.0 3.0 31 79
+ 0.31924 0 2 tcp 1040 ------- 1 0.0 3.0 32 80
+ 0.32 1 2 cbr 500 ------- 0 1.0 3.1 24 81
- 0.32 1 2 cbr 500 ------- 0 1.0 3.1 24 81
r 0.3208 2 3 tcp 1040 ------- 1 0.0 3.0 24 56
+ 0.3208 3 2 ack 40 ------- 1 3.0 0.0 24 82
- 0.3208 3 2 ack 40 ------- 1 3.0 0.0 24 82
r 0.321 1 2 cbr 500 ------- 0 1.0 3.1 22 73
+ 0.321 2 3 cbr 500 ------- 0 1.0 3.1 22 73
- 0.32112 2 3 tcp 1040 ------- 1 0.0 3.0 29 63
r 0.32132 2 0 ack 40 ------- 1 3.0 0.0 16 68
+ 0.32132 0 2 tcp 1040 ------- 1 0.0 3.0 33 83
+ 0.32132 0 2 tcp 1040 ------- 1 0.0 3.0 34 84
- 0.32132 0 2 tcp 1040 ------- 1 0.0 3.0 32 80
r 0.32156 3 2 ack 40 ------- 1 3.0 0.0 20 74
+ 0.32156 2 0 ack 40 ------- 1 3.0 0.0 20 74
- 0.32156 2 0 ack 40 ------- 1 3.0 0.0 20 74
r 0.3218 2 3 cbr 500 ------- 0 1.0 3.1 19 65
- 0.3232 2 3 cbr 500 ------- 0 1.0 3.1 21 70
r 0.3234 2 0 ack 40 ------- 1 3.0 0.0 17 69
+ 0.3234 0 2 tcp 1040 ------- 1 0.0 3.0 35 85
+ 0.3234 0 2 tcp 1040 ------- 1 0.0 3.0 36 86
- 0.3234 0 2 tcp 1040 ------- 1 0.0 3.0 33 83
r 0.32364 3 2 ack 40 ------- 1 3.0 0.0 21 75
+ 0.32364 2 0 ack 40 ------- 1 3.0 0.0 21 75
- 0.32364 2 0 ack 40 ------- 1 3.0 0.0 21 75
r 0.32388 2 3 tcp 1040 ------- 1 0.0 3.0 25 58
+ 0.32388 3 2 ack 40 ------- 1 3.0 0.0 25 87
- 0.32388 3 2 ack 40 ------- 1 3.0 0.0 25 87
- 0.3242 2 3 tcp 1040 ------- 1 0.0 3.0 30 64
+ 0.325 1 2 cbr 500 ------- 0 1.0 3.1 25 88
- 0.325 1 2 cbr 500 ------- 0 1.0 3.1 25 88
- 0.32548 0 2 tcp 1040 ------- 1 0.0 3.0 34 84
r 0.32572 3 2 ack 40 ------- 1 3.0 0.0 22 77
+ 0.32572 2 0 ack 40 ------- 1 3.0 0.0 22 77
- 0.32572 2 0 ack 40 ------- 1 3.0 0.0 22 77
r 0.32596 2 3 tcp 1040 ------- 1 0.0 3.0 26 59
+ 0.32596 3 2 ack 40 ------- 1 3.0 0.0 26 89
- 0.32596 3 2 ack 40 ------- 1 3.0 0.0 26 89
r 0.326 1 2 cbr 500 ------- 0 1.0 3.1 23 76
+ 0.326 2 3 cbr 500 ------- 0 1.0 3.1 23 76
- 0.32628 2 3 cbr 500 ------- 0 1.0 3.1 22 73
r 0.32648 2 0 ack 40 ------- 1 3.0 0.0 18 71
+ 0.32648 0 2 tcp 1040 ------- 1 0.0 3.0 37 90
+ 0.32648 0 2 tcp 1040 ------- 1 0.0 3.0 38 91
r 0.32696 2 3 cbr 500 ------- 0 1.0 3.1 20 67
- 0.32728 2 3 cbr 500 ------- 0 1.0 3.1 23 76
- 0.32756 0 2 tcp 1040 ------- 1 0.0 3.0 35 85
r 0.32856 2 0 ack 40 ------- 1 3.0 0.0 19 72
+ 0.32856 0 2 tcp 1040 ------- 1 0.0 3.0 39 92
r 0.3288 3 2 ack 40 ------- 1 3.0 0.0 23 78
+ 0.3288 2 0 ack 40 ------- 1 3.0 0.0 23 78
- 0.3288 2 0 ack 40 ------- 1 3.0 0.0 23 78
r 0.32904 2 3 tcp 1040 ------- 1 0.0 3.0 27 60
+ 0.32904 3 2 ack 40 ------- 1 3.0 0.0 27 93
- 0.32904 3 2 ack 40 ------- 1 3.0 0.0 27 93
- 0.32964 0 2 tcp 1040 ------- 1 0.0 3.0 36 86
+ 0.33 1 2 cbr 500 ------- 0 1.0 3.1 26 94
- 0.33 1 2 cbr 500 ------- 0 1.0 3.1 26 94
r 0.33088 3 2 ack 40 ------- 1 3.0 0.0 24 82
+ 0.33088 2 0 ack 40 ------- 1 3.0 0.0 24 82
- 0.33088 2 0 ack 40 ------- 1 3.0 0.0 24 82
r 0.331 1 2 cbr 500 ------- 0 1.0 3.1 24 81
+ 0.331 2 3 cbr 500 ------- 0 1.0 3.1 24 81
- 0.331 2 3 cbr 500 ------- 0 1.0 3.1 24 81
r 0.33112 2 3 tcp 1040 ------- 1 0.0 3.0 28 61
+ 0.33112 3 2 ack 40 ------- 1 3.0 0.0 28 95
- 0.33112 3 2 ack 40 ------- 1 3.0 0.0 28 95
r 0.33132 0 2 tcp 1040 ------- 1 0.0 3.0 31 79
+ 0.33132 2 3 tcp 1040 ------- 1 0.0 3.0 31 79
r 0.33164 2 0 ack 40 ------- 1 3.0 0.0 20 74
+ 0.33164 0 2 tcp 1040 ------- 1 0.0 3.0 40 96
- 0.33172 0 2 tcp 1040 ------- 1 0.0 3.0 37 90
- 0.332 2 3 tcp 1040 ------- 1 0.0 3.0 31 79
r 0.3332 2 3 tcp 1040 ------- 1 0.0 3.0 29 63
+ 0.3332 3 2 ack 40 ------- 1 3.0 0.0 29 97
- 0.3332 3 2 ack 40 ------- 1 3.0 0.0 29 97
r 0.3334 0 2 tcp 1040 ------- 1 0.0 3.0 32 80
+ 0.3334 2 3 tcp 1040 ------- 1 0.0 3.0 32 80
r 0.33372 2 0 ack 40 ------- 1 3.0 0.0 21 75
+ 0.33372 0 2 tcp 1040 ------- 1 0.0 3.0 41 98
- 0.3338 0 2 tcp 1040 ------- 1 0.0 3.0 38 91
r 0.33396 3 2 ack 40 ------- 1 3.0 0.0 25 87
+ 0.33396 2 0 ack 40 ------- 1 3.0 0.0 25 87
- 0.33396 2 0 ack 40 ------- 1 3.0 0.0 25 87
- 0.33408 2 3 tcp 1040 ------- 1 0.0 3.0 32 80
r 0.3342 2 3 cbr 500 ------- 0 1.0 3.1 21 70
+ 0.335 1 2 cbr 500 ------- 0 1.0 3.1 27 99
- 0.335 1 2 cbr 500 ------- 0 1.0 3.1 27 99
r 0.33548 0 2 tcp 1040 ------- 1 0.0 3.0 33 83
+ 0.33548 2 3 tcp 1040 ------- 1 0.0 3.0 33 83
r 0.3358 2 0 ack 40 ------- 1 3.0 0.0 22 77
+ 0.3358 0 2 tcp 1040 ------- 1 0.0 3.0 42 100
- 0.33588 0 2 tcp 1040 ------- 1 0.0 3.0 39 92
r 0.336 1 2 cbr 500 ------- 0 1.0 3.1 25 88
+ 0.336 2 3 cbr 500 ------- 0 1.0 3.1 25 88
r 0.33604 3 2 ack 40 ------- 1 3.0 0.0 26 89
+ 0.33604 2 0 ack 40 ------- 1 3.0 0.0 26 89
- 0.33604 2 0 ack 40 ------- 1 3.0 0.0 26 89
- 0.33616 2 3 tcp 1040 ------- 1 0.0 3.0 33 83
r 0.33628 2 3 tcp 1040 ------- 1 0.0 3.0 30 64
+ 0.33628 3 2 ack 40 ------- 1 3.0 0.0 30 101
- 0.33628 3 2 ack 40 ------- 1 3.0 0.0 30 101
r 0.33728 2 3 cbr 500 ------- 0 1.0 3.1 22 73
r 0.33756 0 2 tcp 1040 ------- 1 0.0 3.0 34 84
+ 0.33756 2 3 tcp 1040 ------- 1 0.0 3.0 34 84
- 0.33796 0 2 tcp 1040 ------- 1 0.0 3.0 40 96
- 0.33824 2 3 cbr 500 ------- 0 1.0 3.1 25 88
r 0.33828 2 3 cbr 500 ------- 0 1.0 3.1 23 76
r 0.33888 2 0 ack 40 ------- 1 3.0 0.0 23 78
+ 0.33888 0 2 tcp 1040 ------- 1 0.0 3.0 43 102
r 0.33912 3 2 ack 40 ------- 1 3.0 0.0 27 93
+ 0.33912 2 0 ack 40 ------- 1 3.0 0.0 27 93
- 0.33912 2 0 ack 40 ------- 1 3.0 0.0 27 93
- 0.33924 2 3 tcp 1040 ------- 1 0.0 3.0 34 84
r 0.33964 0 2 tcp 1040 ------- 1 0.0 3.0 35 85
+ 0.33964 2 3 tcp 1040 ------- 1 0.0 3.0 35 85
+ 0.34 1 2 cbr 500 ------- 0 1.0 3.1 28 103
- 0.34 1 2 cbr 500 ------- 0 1.0 3.1 28 103
- 0.34004 0 2 tcp 1040 ------- 1 0.0 3.0 41 98
r 0.34096 2 0 ack 40 ------- 1 3.0 0.0 24 82
+ 0.34096 0 2 tcp 1040 ------- 1 0.0 3.0 44 104
r 0.341 1 2 cbr 500 ------- 0 1.0 3.1 26 94
+ 0.341 2 3 cbr 500 ------- 0 1.0 3.1 26 94
r 0.3412 3 2 ack 40 ------- 1 3.0 0.0 28 95
+ 0.3412 2 0 ack 40 ------- 1 3.0 0.0 28 95
- 0.3412 2 0 ack 40 ------- 1 3.0 0.0 28 95
- 0.34132 2 3 tcp 1040 ------- 1 0.0 3.0 35 85
r 0.34172 0 2 tcp 1040 ------- 1 0.0 3.0 36 86
+ 0.34172 2 3 tcp 1040 ------- 1 0.0 3.0 36 86
r 0.342 2 3 cbr 500 ------- 0 1.0 3.1 24 81
- 0.34212 0 2 tcp 1040 ------- 1 0.0 3.0 42 100
r 0.34328 3 2 ack 40 ------- 1 3.0 0.0 29 97
+ 0.34328 2 0 ack 40 ------- 1 3.0 0.0 29 97
- 0.34328 2 0 ack 40 ------- 1 3.0 0.0 29 97
- 0.3434 2 3 cbr 500 ------- 0 1.0 3.1 26 94
r 0.3438 0 2 tcp 1040 ------- 1 0.0 3.0 37 90
+ 0.3438 2 3 tcp 1040 ------- 1 0.0 3.0 37 90
r 0.34404 2 0 ack 40 ------- 1 3.0 0.0 25 87
+ 0.34404 0 2 tcp 1040 ------- 1 0.0 3.0 45 105
r 0.34408 2 3 tcp 1040 ------- 1 0.0 3.0 31 79
+ 0.34408 3 2 ack 40 ------- 1 3.0 0.0 31 106
- 0.34408 3 2 ack 40 ------- 1 3.0 0.0 31 106
- 0.3442 0 2 tcp 1040 ------- 1 0.0 3.0 43 102
- 0.3444 2 3 tcp 1040 ------- 1 0.0 3.0 36 86
+ 0.345 1 2 cbr 500 ------- 0 1.0 3.1 29 107
- 0.345 1 2 cbr 500 ------- 0 1.0 3.1 29 107
r 0.34588 0 2 tcp 1040 ------- 1 0.0 3.0 38 91
+ 0.34588 2 3 tcp 1040 ------- 1 0.0 3.0 38 91
r 0.346 1 2 cbr 500 ------- 0 1.0 3.1 27 99
+ 0.346 2 3 cbr 500 ------- 0 1.0 3.1 27 99
r 0.34612 2 0 ack 40 ------- 1 3.0 0.0 26 89
+ 0.34612 0 2 tcp 1040 ------- 1 0.0 3.0 46 108
r 0.34616 2 3 tcp 1040 ------- 1 0.0 3.0 32 80
+ 0.34616 3 2 ack 40 ------- 1 3.0 0.0 32 109
- 0.34616 3 2 ack 40 ------- 1 3.0 0.0 32 109
- 0.34628 0 2 tcp 1040 ------- 1 0.0 3.0 44 104
r 0.34636 3 2 ack 40 ------- 1 3.0 0.0 30 101
+ 0.34636 2 0 ack 40 ------- 1 3.0 0.0 30 101
- 0.34636 2 0 ack 40 ------- 1 3.0 0.0 30 101
- 0.34648 2 3 tcp 1040 ------- 1 0.0 3.0 37 90
r 0.34796 0 2 tcp 1040 ------- 1 0.0 3.0 39 92
+ 0.34796 2 3 tcp 1040 ------- 1 0.0 3.0 39 92
r 0.34824 2 3 tcp 1040 ------- 1 0.0 3.0 33 83
+ 0.34824 3 2 ack 40 ------- 1 3.0 0.0 33 110
- 0.34824 3 2 ack 40 ------- 1 3.0 0.0 33 110
- 0.34836 0 2 tcp 1040 ------- 1 0.0 3.0 45 105
- 0.34856 2 3 tcp 1040 ------- 1 0.0 3.0 38 91
r 0.3492 2 0 ack 40 ------- 1 3.0 0.0 27 93
+ 0.3492 0 2 tcp 1040 ------- 1 0.0 3.0 47 111
r 0.34924 2 3 cbr 500 ------- 0 1.0 3.1 25 88
+ 0.35 1 2 cbr 500 ------- 0 1.0 3.1 30 112
- 0.35 1 2 cbr 500 ------- 0 1.0 3.1 30 112
r 0.35004 0 2 tcp 1040 ------- 1 0.0 3.0 40 96
+ 0.35004 2 3 tcp 1040 ------- 1 0.0 3.0 40 96
- 0.35044 0 2 tcp 1040 ------- 1 0.0 3.0 46 108
- 0.35064 2 3 cbr 500 ------- 0 1.0 3.1 27 99
r 0.351 1 2 cbr 500 ------- 0 1.0 3.1 28 103
+ 0.351 2 3 cbr 500 ------- 0 1.0 3.1 28 103
r 0.35128 2 0 ack 40 ------- 1 3.0 0.0 28 95
+ 0.35128 0 2 tcp 1040 ------- 1 0.0 3.0 48 113
r 0.35132 2 3 tcp 1040 ------- 1 0.0 3.0 34 84
+ 0.35132 3 2 ack 40 ------- 1 3.0 0.0 34 114
- 0.35132 3 2 ack 40 ------- 1 3.0 0.0 34 114
- 0.35164 2 3 tcp 1040 ------- 1 0.0 3.0 39 92
r 0.35212 0 2 tcp 1040 ------- 1 0.0 3.0 41 98
+ 0.35212 2 3 tcp 1040 ------- 1 0.0 3.0 41 98
- 0.35252 0 2 tcp 1040 ------- 1 0.0 3.0 47 111
r 0.35336 2 0 ack 40 ------- 1 3.0 0.0 29 97
+ 0.35336 0 2 tcp 1040 ------- 1 0.0 3.0 49 115
r 0.3534 2 3 tcp 1040 ------- 1 0.0 3.0 35 85
+ 0.3534 3 2 ack 40 ------- 1 3.0 0.0 35 116
- 0.3534 3 2 ack 40 ------- 1 3.0 0.0 35 116
- 0.35372 2 3 tcp 1040 ------- 1 0.0 3.0 40 96
r 0.35416 3 2 ack 40 ------- 1 3.0 0.0 31 106
+ 0.35416 2 0 ack 40 ------- 1 3.0 0.0 31 106
- 0.35416 2 0 ack 40 ------- 1 3.0 0.0 31 106
r 0.3542 0 2 tcp 1040 ------- 1 0.0 3.0 42 100
+ 0.3542 2 3 tcp 1040 ------- 1 0.0 3.0 42 100
r 0.3544 2 3 cbr 500 ------- 0 1.0 3.1 26 94
- 0.3546 0 2 tcp 1040 ------- 1 0.0 3.0 48 113
+ 0.355 1 2 cbr 500 ------- 0 1.0 3.1 31 117
- 0.355 1 2 cbr 500 ------- 0 1.0 3.1 31 117
- 0.3558 2 3 cbr 500 ------- 0 1.0 3.1 28 103
r 0.356 1 2 cbr 500 ------- 0 1.0 3.1 29 107
+ 0.356 2 3 cbr 500 ------- 0 1.0 3.1 29 107
r 0.35624 3 2 ack 40 ------- 1 3.0 0.0 32 109
+ 0.35624 2 0 ack 40 ------- 1 3.0 0.0 32 109
- 0.35624 2 0 ack 40 ------- 1 3.0 0.0 32 109
r 0.35628 0 2 tcp 1040 ------- 1 0.0 3.0 43 102
+ 0.35628 2 3 tcp 1040 ------- 1 0.0 3.0 43 102
r 0.35644 2 0 ack 40 ------- 1 3.0 0.0 30 101
+ 0.35644 0 2 tcp 1040 ------- 1 0.0 3.0 50 118
r 0.35648 2 3 tcp 1040 ------- 1 0.0 3.0 36 86
+ 0.35648 3 2 ack 40 ------- 1 3.0 0.0 36 119
- 0.35648 3 2 ack 40 ------- 1 3.0 0.0 36 119
- 0.35668 0 2 tcp 1040 ------- 1 0.0 3.0 49 115
- 0.3568 2 3 tcp 1040 ------- 1 0.0 3.0 41 98
r 0.35832 3 2 ack 40 ------- 1 3.0 0.0 33 110
+ 0.35832 2 0 ack 40 ------- 1 3.0 0.0 33 110
- 0.35832 2 0 ack 40 ------- 1 3.0 0.0 33 110
r 0.35836 0 2 tcp 1040 ------- 1 0.0 3.0 44 104
+ 0.35836 2 3 tcp 1040 ------- 1 0.0 3.0 44 104
r 0.35856 2 3 tcp 1040 ------- 1 0.0 3.0 37 90
+ 0.35856 3 2 ack 40 ------- 1 3.0 0.0 37 120
- 0.35856 3 2 ack 40 ------- 1 3.0 0.0 37 120
- 0.35876 0 2 tcp 1040 ------- 1 0.0 3.0 50 118
- 0.35888 2 3 tcp 1040 ------- 1 0.0 3.0 42 100
+ 0.36 1 2 cbr 500 ------- 0 1.0 3.1 32 121
- 0.36 1 2 cbr 500 ------- 0 1.0 3.1 32 121