n -t 0 -s 0 -S DLABEL -l "TCP" -L ""
n -t 0 -s 1 -S DLABEL -l "UDP" -L ""
n -t 0 -s 3 -S DLABEL -l "NULL-TCPSINK" -L ""
V -t * -v 1.0a5 -a 0
A -t * -n 1 -p 0 -o 0x7fffffff -c 30 -a 1
A -t * -h 1 -m 1073741823 -s 0
c -t * -i 1 -n blue
n -t * -a 0 -s 0 -S UP -v circle -c red -i red
n -t * -a 1 -s 1 -S UP -v circle -c blue -i blue
n -t * -a 2 -s 2 -S UP -v circle -c purple -i purple
n -t * -a 3 -s 3 -S UP -v circle -c orange -i orange
l -t * -s 0 -d 2 -S UP -r 4000000 -D 0.01 -c black
l -t * -s 1 -d 2 -S UP -r 4000000 -D 0.01 -c black
l -t * -s 2 -d 3 -S UP -r 4000000 -D 0.01 -c black
+ -t 0.1 -s 0 -d 2 -p tcp -e 40 -c 1 -i 0 -a 1 -x {0.0 3.0 0 ------- null}
- -t 0.1 -s 0 -d 2 -p tcp -e 40 -c 1 -i 0 -a 1 -x {0.0 3.0 0 ------- null}
h -t 0.1 -s 0 -d 2 -p tcp -e 40 -c 1 -i 0 -a 1 -x {0.0 3.0 -1 ------- null}
r -t 0.11008 -s 0 -d 2 -p tcp -e 40 -c 1 -i 0 -a 1 -x {0.0 3.0 0 ------- null}
+ -t 0.11008 -s 2 -d 3 -p tcp -e 40 -c 1 -i 0 -a 1 -x {0.0 3.0 0 ------- null}
- -t 0.11008 -s 2 -d 3 -p tcp -e 40 -c 1 -i 0 -a 1 -x {0.0 3.0 0 ------- null}
h -t 0.11008 -s 2 -d 3 -p tcp -e 40 -c 1 -i 0 -a 1 -x {0.0 3.0 -1 ------- null}
r -t 0.12016 -s 2 -d 3 -p tcp -e 40 -c 1 -i 0 -a 1 -x {0.0 3.0 0 ------- null}
+ -t 0.12016 -s 3 -d 2 -p ack -e 40 -c 1 -i 1 -a 1 -x {3.0 0.0 0 ------- null}
- -t 0.12016 -s 3 -d 2 -p ack -e 40 -c 1 -i 1 -a 1 -x {3.0 0.0 0 ------- null}
h -t 0.12016 -s 3 -d 2 -p ack -e 40 -c 1 -i 1 -a 1 -x {3.0 0.0 -1 ------- null}
r -t 0.13024 -s 3 -d 2 -p ack -e 40 -c 1 -i 1 -a 1 -x {3.0 0.0 0 ------- null}
+ -t 0.13024 -s 2 -d 0 -p ack -e 40 -c 1 -i 1 -a 1 -x {3.0 0.0 0 ------- null}
- -t 0.13024 -s 2 -d 0 -p ack -e 40 -c 1 -i 1 -a 1 -x {3.0 0.0 0 ------- null}
h -t 0.13024 -s 2 -d 0 -p ack -e 40 -c 1 -i 1 -a 1 -x {3.0 0.0 -1 ------- null}
r -t 0.14032 -s 2 -d 0 -p ack -e 40 -c 1 -i 1 -a 1 -x {3.0 0.0 0 ------- null}
+ -t 0.14032 -s 0 -d 2 -p tcp -e 1040 -c 1 -i 2 -a 1 -x {0.0 3.0 1 ------- null}
- -t 0.14032 -s 0 -d 2 -p tcp -e 1040 -c 1 -i 2 -a 1 -x {0.0 3.0 1 ------- null}
h -t 0.14032 -s 0 -d 2 -p tcp -e 1040 -c 1 -i 2 -a 1 -x {0.0 3.0 -1 ------- null}
+ -t 0.14032 -s 0 -d 2 -p tcp -e 1040 -c 1 -i 3 -a 1 -x {0.0 3.0 2 ------- null}
- -t 0.1424 -s 0 -d 2 -p tcp -e 1040 -c 1 -i 3 -a 1 -x {0.0 3.0 2 ------- null}
h -t 0.1424 -s 0 -d 2 -p tcp -e 1040 -c 1 -i 3 -a 1 -x {0.0 3.0 -1 ------- null}
r -t 0.1524 -s 0 -d 2 -p tcp -e 1040 -c 1 -i 2 -a 1 -x {0.0 3.0 1 ------- null}
+ -t 0.1524 -s 2 -d 3 -p tcp -e 1040 -c 1 -i 2 -a 1 -x {0.0 3.0 1 ------- null}
- -t 0.1524 -s 2 -d 3 -p tcp -e 1040 -c 1 -i 2 -a 1 -x {0.0 3.0 1 ------- null}
h -t 0.1524 -s 2 -d 3 -p tcp -e 1040 -c 1 -i 2 -a 1 -x {0.0 3.0 -1 ------- null}
r -t 0.15448 -s 0 -d 2 -p tcp -e 1040 -c 1 -i 3 -a 1 -x {0.0 3.0 2 ------- null}
+ -t 0.15448 -s 2 -d 3 -p tcp -e 1040 -c 1 -i 3 -a 1 -x {0.0 3.0 2 ------- null}
- -t 0.15448 -s 2 -d 3 -p tcp -e 1040 -c 1 -i 3 -a 1 -x {0.0 3.0 2 ------- null}
h -t 0.15448 -s 2 -d 3 -p tcp -e 1040 -c 1 -i 3 -a 1 -x {0.0 3.0 -1 ------- null}
r -t 0.16448 -s 2 -d 3 -p tcp -e 1040 -c 1 -i 2 -a 1 -x {0.0 3.0 1 ------- null}
+ -t 0.16448 -s 3 -d 2 -p ack -e 40 -c 1 -i 4 -a 1 -x {3.0 0.0 1 ------- null}
- -t 0.16448 -s 3 -d 2 -p ack -e 40 -c 1 -i 4 -a 1 -x {3.0 0.0 1 ------- null}
h -t 0.16448 -s 3 -d 2 -p ack -e 40 -c 1 -i 4 -a 1 -x {3.0 0.0 -1 ------- null}
r -t 0.16656 -s 2 -d 3 -p tcp -e 1040 -c 1 -i 3 -a 1 -x {0.0 3.0 2 ------- null}
+ -t 0.16656 -s 3 -d 2 -p ack -e 40 -c 1 -i 5 -a 1 -x {3.0 0.0 2 ------- null}
- -t 0.16656 -s 3 -d 2 -p ack -e 40 -c 1 -i 5 -a 1 -x {3.0 0.0 2 ------- null}
h -t 0.16656 -s 3 -d 2 -p ack -e 40 -c 1 -i 5 -a 1 -x {3.0 0.0 -1 ------- null}
r -t 0.17456 -s 3 -d 2 -p ack -e 40 -c 1 -i 4 -a 1 -x {3.0 0.0 1 ------- null}
+ -t 0.17456 -s 2 -d 0 -p ack -e 40 -c 1 -i 4 -a 1 -x {3.0 0.0 1 ------- null}
- -t 0.17456 -s 2 -d 0 -p ack -e 40 -c 1 -i 4 -a 1 -x {3.0 0.0 1 ------- null}
h -t 0.17456 -s 2 -d 0 -p ack -e 40 -c 1 -i 4 -a 1 -x {3.0 0.0 -1 ------- null}
r -t 0.17664 -s 3 -d 2 -p ack -e 40 -c 1 -i 5 -a 1 -x {3.0 0.0 2 ------- null}
+ -t 0.17664 -s 2 -d 0 -p ack -e 40 -c 1 -i 5 -a 1 -x {3.0 0.0 2 ------- null}
- -t 0.17664 -s 2 -d 0 -p ack -e 40 -c 1 -i 5 -a 1 -x {3.0 0.0 2 ------- null}
h -t 0.17664 -s 2 -d 0 -p ack -e 40 -c 1 -i 5 -a 1 -x {3.0 0.0 -1 ------- null}
r -t 0.18464 -s 2 -d 0 -p ack -e 40 -c 1 -i 4 -a 1 -x {3.0 0.0 1 ------- null}
+ -t 0.18464 -s 0 -d 2 -p tcp -e 1040 -c 1 -i 6 -a 1 -x {0.0 3.0 3 ------- null}
- -t 0.18464 -s 0 -d 2 -p tcp -e 1040 -c 1 -i 6 -a 1 -x {0.0 3.0 3 ------- null}
h -t 0.18464 -s 0 -d 2 -p tcp -e 1040 -c 1 -i 6 -a 1 -x {0.0 3.0 -1 ------- null}
+ -t 0.18464 -s 0 -d 2 -p tcp -e 1040 -c 1 -i 7 -a 1 -x {0.0 3.0 4 ------- null}
r -t 0.18672 -s 2 -d 0 -p ack -e 40 -c 1 -i 5 -a 1 -x {3.0 0.0 2 ------- null}
+ -t 0.18672 -s 0 -d 2 -p tcp -e 1040 -c 1 -i 8 -a 1 -x {0.0 3.0 5 ------- null}
+ -t 0.18672 -s 0 -d 2 -p tcp -e 1040 -c 1 -i 9 -a 1 -x {0.0 3.0 6 ------- null}
- -t 0.18672 -s 0 -d 2 -p tcp -e 1040 -c 1 -i 7 -a 1 -x {0.0 3.0 4 ------- null}
h -t 0.18672 -s 0 -d 2 -p tcp -e 1040 -c 1 -i 7 -a 1 -x {0.0 3.0 -1 ------- null}
- -t 0.1888 -s 0 -d 2 -p tcp -e 1040 -c 1 -i 8 -a 1 -x {0.0 3.0 5 ------- null}
h -t 0.1888 -s 0 -d 2 -p tcp -e 1040 -c 1 -i 8 -a 1 -x {0.0 3.0 -1 ------- null}
- -t 0.19088 -s 0 -d 2 -p tcp -e 1040 -c 1 -i 9 -a 1 -x {0.0 3.0 6 ------- null}
h -t 0.19088 -s 0 -d 2 -p tcp -e 1040 -c 1 -i 9 -a 1 -x {0.0 3.0 -1 ------- null}
r -t 0.19672 -s 0 -d 2 -p tcp -e 1040 -c 1 -i 6 -a 1 -x {0.0 3.0 3 ------- null}
+ -t 0.19672 -s 2 -d 3 -p tcp -e 1040 -c 1 -i 6 -a 1 -x {0.0 3.0 3 ------- null}
- -t 0.19672 -s 2 -d 3 -p tcp -e 1040 -c 1 -i 6 -a 1 -x {0.0 3.0 3 ------- null}
h -t 0.19672 -s 2 -d 3 -p tcp -e 1040 -c 1 -i 6 -a 1 -x {0.0 3.0 -1 ------- null}
r -t 0.1988 -s 0 -d 2 -p tcp -e 1040 -c 1 -i 7 -a 1 -x {0.0 3.0 4 ------- null}
+ -t 0.1988 -s 2 -d 3 -p tcp -e 1040 -c 1 -i 7 -a 1 -x {0.0 3.0 4 ------- null}
- -t 0.1988 -s 2 -d 3 -p tcp -e 1040 -c 1 -i 7 -a 1 -x {0.0 3.0 4 ------- null}
h -t 0.1988 -s 2 -d 3 -p tcp -e 1040 -c 1 -i 7 -a 1 -x {0.0 3.0 -1 ------- null}
+ -t 0.2 -s 1 -d 2 -p cbr -e 500 -c 0 -i 10 -a 0 -x {1.0 3.1 0 ------- null}
- -t 0.2 -s 1 -d 2 -p cbr -e 500 -c 0 -i 10 -a 0 -x {1.0 3.1 0 ------- null}
h -t 0.2 -s 1 -d 2 -p cbr -e 500 -c 0 -i 10 -a 0 -x {1.0 3.1 -1 ------- null}
r -t 0.20088 -s 0 -d 2 -p tcp -e 1040 -c 1 -i 8 -a 1 -x {0.0 3.0 5 ------- null}
+ -t 0.20088 -s 2 -d 3 -p tcp -e 1040 -c 1 -i 8 -a 1 -x {0.0 3.0 5 ------- null}
- -t 0.20088 -s 2 -d 3 -p tcp -e 1040 -c 1 -i 8 -a 1 -x {0.0 3.0 5 ------- null}
h -t 0.20088 -s 2 -d 3 -p tcp -e 1040 -c 1 -i 8 -a 1 -x {0.0 3.0 -1 ------- null}
r -t 0.20296 -s 0 -d 2 -p tcp -e 1040 -c 1 -i 9 -a 1 -x {0.0 3.0 6 ------- null}
+ -t 0.20296 -s 2 -d 3 -p tcp -e 1040 -c 1 -i 9 -a 1 -x {0.0 3.0 6 ------- null}
- -t 0.20296 -s 2 -d 3 -p tcp -e 1040 -c 1 -i 9 -a 1 -x {0.0 3.0 6 ------- null}
h -t 0.20296 -s 2 -d 3 -p tcp -e 1040 -c 1 -i 9 -a 1 -x {0.0 3.0 -1 ------- null}
+ -t 0.205 -s 1 -d 2 -p cbr -e 500 -c 0 -i 11 -a 0 -x {1.0 3.1 1 ------- null}
- -t 0.205 -s 1 -d 2 -p cbr -e 500 -c 0 -i 11 -a 0 -x {1.0 3.1 1 ------- null}
h -t 0.205 -s 1 -d 2 -p cbr -e 500 -c 0 -i 11 -a 0 -x {1.0 3.1 -1 ------- null}
r -t 0.2088 -s 2 -d 3 -p tcp -e 1040 -c 1 -i 6 -a 1 -x {0.0 3.0 3 ------- null}
+ -t 0.2088 -s 3 -d 2 -p ack -e 40 -c 1 -i 12 -a 1 -x {3.0 0.0 3 ------- null}
- -t 0.2088 -s 3 -d 2 -p ack -e 40 -c 1 -i 12 -a 1 -x {3.0 0.0 3 ------- null}
h -t 0.2088 -s 3 -d 2 -p ack -e 40 -c 1 -i 12 -a 1 -x {3.0 0.0 -1 ------- null}
+ -t 0.21 -s 1 -d 2 -p cbr -e 500 -c 0 -i 13 -a 0 -x {1.0 3.1 2 ------- null}
- -t 0.21 -s 1 -d 2 -p cbr -e 500 -c 0 -i 13 -a 0 -x {1.0 3.1 2 ------- null}
h -t 0.21 -s 1 -d 2 -p cbr -e 500 -c 0 -i 13 -a 0 -x {1.0 3.1 -1 ------- null}
r -t 0.21088 -s 2 -d 3 -p tcp -e 1040 -c 1 -i 7 -a 1 -x {0.0 3.0 4 ------- null}
+ -t 0.21088 -s 3 -d 2 -p ack -e 40 -c 1 -i 14 -a 1 -x {3.0 0.0 4 ------- null}
- -t 0.21088 -s 3 -d 2 -p ack -e 40 -c 1 -i 14 -a 1 -x {3.0 0.0 4 ------- null}
h -t 0.21088 -s 3 -d 2 -p ack -e 40 -c 1 -i 14 -a 1 -x {3.0 0.0 -1 ------- null}
r -t 0.211 -s 1 -d 2 -p cbr -e 500 -c 0 -i 10 -a 0 -x {1.0 3.1 0 ------- null}
+ -t 0.211 -s 2 -d 3 -p cbr -e 500 -c 0 -i 10 -a 0 -x {1.0 3.1 0 ------- null}
- -t 0.211 -s 2 -d 3 -p cbr -e 500 -c 0 -i 10 -a 0 -x {1.0 3.1 0 ------- null}
h -t 0.211 -s 2 -d 3 -p cbr -e 500 -c 0 -i 10 -a 0 -x {1.0 3.1 -1 ------- null}
r -t 0.21296 -s 2 -d 3 -p tcp -e 1040 -c 1 -i 8 -a 1 -x {0.0 3.0 5 ------- null}
+ -t 0.21296 -s 3 -d 2 -p ack -e 40 -c 1 -i 15 -a 1 -x {3.0 0.0 5 ------- null}
- -t 0.21296 -s 3 -d 2 -p ack -e 40 -c 1 -i 15 -a 1 -x {3.0 0.0 5 ------- null}
h -t 0.21296 -s 3 -d 2 -p ack -e 40 -c 1 -i 15 -a 1 -x {3.0 0.0 -1 ------- null}
+ -t 0.215 -s 1 -d 2 -p cbr -e 500 -c 0 -i 16 -a 0 -x {1.0 3.1 3 ------- null}
- -t 0.215 -s 1 -d 2 -p cbr -e 500 -c 0 -i 16 -a 0 -x {1.0 3.1 3 ------- null}
h -t 0.215 -s 1 -d 2 -p cbr -e 500 -c 0 -i 16 -a 0 -x {1.0 3.1 -1 ------- null}
r -t 0.21504 -s 2 -d 3 -p tcp -e 1040 -c 1 -i 9 -a 1 -x {0.0 3.0 6 ------- null}
+ -t 0.21504 -s 3 -d 2 -p ack -e 40 -c 1 -i 17 -a 1 -x {3.0 0.0 6 ------- null}
- -t 0.21504 -s 3 -d 2 -p ack -e 40 -c 1 -i 17 -a 1 -x {3.0 0.0 6 ------- null}
h -t 0.21504 -s 3 -d 2 -p ack -e 40 -c 1 -i 17 -a 1 -x {3.0 0.0 -1 ------- null}
r -t 0.216 -s 1 -d 2 -p cbr -e 500 -c 0 -i 11 -a 0 -x {1.0 3.1 1 ------- null}
+ -t 0.216 -s 2 -d 3 -p cbr -e 500 -c 0 -i 11 -a 0 -x {1.0 3.1 1 ------- null}
- -t 0.216 -s 2 -d 3 -p cbr -e 500 -c 0 -i 11 -a 0 -x {1.0 3.1 1 ------- null}
h -t 0.216 -s 2 -d 3 -p cbr -e 500 -c 0 -i 11 -a 0 -x {1.0 3.1 -1 ------- null}
r -t 0.21888 -s 3 -d 2 -p ack -e 40 -c 1 -i 12 -a 1 -x {3.0 0.0 3 ------- null}
+ -t 0.21888 -s 2 -d 0 -p ack -e 40 -c 1 -i 12 -a 1 -x {3.0 0.0 3 ------- null}
- -t 0.21888 -s 2 -d 0 -p ack -e 40 -c 1 -i 12 -a 1 -x {3.0 0.0 3 ------- null}
h -t 0.21888 -s 2 -d 0 -p ack -e 40 -c 1 -i 12 -a 1 -x {3.0 0.0 -1 ------- null}
+ -t 0.22 -s 1 -d 2 -p cbr -e 500 -c 0 -i 18 -a 0 -x {1.0 3.1 4 ------- null}
- -t 0.22 -s 1 -d 2 -p cbr -e 500 -c 0 -i 18 -a 0 -x {1.0 3.1 4 ------- null}
h -t 0.22 -s 1 -d 2 -p cbr -e 500 -c 0 -i 18 -a 0 -x {1.0 3.1 -1 ------- null}
r -t 0.22096 -s 3 -d 2 -p ack -e 40 -c 1 -i 14 -a 1 -x {3.0 0.0 4 ------- null}
+ -t 0.22096 -s 2 -d 0 -p ack -e 40 -c 1 -i 14 -a 1 -x {3.0 0.0 4 ------- null}
- -t 0.22096 -s 2 -d 0 -p ack -e 40 -c 1 -i 14 -a 1 -x {3.0 0.0 4 ------- null}
h -t 0.22096 -s 2 -d 0 -p ack -e 40 -c 1 -i 14 -a 1 -x {3.0 0.0 -1 ------- null}
r -t 0.221 -s 1 -d 2 -p cbr -e 500 -c 0 -i 13 -a 0 -x {1.0 3.1 2 ------- null}
+ -t 0.221 -s 2 -d 3 -p cbr -e 500 -c 0 -i 13 -a 0 -x {1.0 3.1 2 ------- null}
- -t 0.221 -s 2 -d 3 -p cbr -e 500 -c 0 -i 13 -a 0 -x {1.0 3.1 2 ------- null}
h -t 0.221 -s 2 -d 3 -p cbr -e 500 -c 0 -i 13 -a 0 -x {1.0 3.1 -1 ------- null}
r -t 0.222 -s 2 -d 3 -p cbr -e 500 -c 0 -i 10 -a 0 -x {1.0 3.1 0 ------- null}
r -t 0.22304 -s 3 -d 2 -p ack -e 40 -c 1 -i 15 -a 1 -x {3.0 0.0 5 ------- null}
+ -t 0.22304 -s 2 -d 0 -p ack -e 40 -c 1 -i 15 -a 1 -x {3.0 0.0 5 ------- null}
- -t 0.22304 -s 2 -d 0 -p ack -e 40 -c 1 -i 15 -a 1 -x {3.0 0.0 5 ------- null}
h -t 0.22304 -s 2 -d 0 -p ack -e 40 -c 1 -i 15 -a 1 -x {3.0 0.0 -1 ------- null}
+ -t 0.225 -s 1 -d 2 -p cbr -e 500 -c 0 -i 19 -a 0 -x {1.0 3.1 5 ------- null}
- -t 0.225 -s 1 -d 2 -p cbr -e 500 -c 0 -i 19 -a 0 -x {1.0 3.1 5 ------- null}
h -t 0.225 -s 1 -d 2 -p cbr -e 500 -c 0 -i 19 -a 0 -x {1.0 3.1 -1 ------- null}
r -t 0.22512 -s 3 -d 2 -p ack -e 40 -c 1 -i 17 -a 1 -x {3.0 0.0 6 ------- null}
+ -t 0.22512 -s 2 -d 0 -p ack -e 40 -c 1 -i 17 -a 1 -x {3.0 0.0 6 ------- null}
- -t 0.22512 -s 2 -d 0 -p ack -e 40 -c 1 -i 17 -a 1 -x {3.0 0.0 6 ------- null}
h -t 0.22512 -s 2 -d 0 -p ack -e 40 -c 1 -i 17 -a 1 -x {3.0 0.0 -1 ------- null}
r -t 0.226 -s 1 -d 2 -p cbr -e 500 -c 0 -i 16 -a 0 -x {1.0 3.1 3 ------- null}
+ -t 0.226 -s 2 -d 3 -p cbr -e 500 -c 0 -i 16 -a 0 -x {1.0 3.1 3 ------- null}
- -t 0.226 -s 2 -d 3 -p cbr -e 500 -c 0 -i 16 -a 0 -x {1.0 3.1 3 ------- null}
h -t 0.226 -s 2 -d 3 -p cbr -e 500 -c 0 -i 16 -a 0 -x {1.0 3.1 -1 ------- null}
r -t 0.227 -s 2 -d 3 -p cbr -e 500 -c 0 -i 11 -a 0 -x {1.0 3.1 1 ------- null}
r -t 0.22896 -s 2 -d 0 -p ack -e 40 -c 1 -i 12 -a 1 -x {3.0 0.0 3 ------- null}
+ -t 0.22896 -s 0 -d 2 -p tcp -e 1040 -c 1 -i 20 -a 1 -x {0.0 3.0 7 ------- null}
- -t 0.22896 -s 0 -d 2 -p tcp -e 1040 -c 1 -i 20 -a 1 -x {0.0 3.0 7 ------- null}
h -t 0.22896 -s 0 -d 2 -p tcp -e 1040 -c 1 -i 20 -a 1 -x {0.0 3.0 -1 ------- null}
+ -t 0.22896 -s 0 -d 2 -p tcp -e 1040 -c 1 -i 21 -a 1 -x {0.0 3.0 8 ------- null}
+ -t 0.23 -s 1 -d 2 -p cbr -e 500 -c 0 -i 22 -a 0 -x {1.0 3.1 6 ------- null}
- -t 0.23 -s 1 -d 2 -p cbr -e 500 -c 0 -i 22 -a 0 -x {1.0 3.1 6 ------- null}
h -t 0.23 -s 1 -d 2 -p cbr -e 500 -c 0 -i 22 -a 0 -x {1.0 3.1 -1 ------- null}
r -t 0.231 -s 1 -d 2 -p cbr -e 500 -c 0 -i 18 -a 0 -x {1.0 3.1 4 ------- null}
+ -t 0.231 -s 2 -d 3 -p cbr -e 500 -c 0 -i 18 -a 0 -x {1.0 3.1 4 ------- null}
- -t 0.231 -s 2 -d 3 -p cbr -e 500 -c 0 -i 18 -a 0 -x {1.0 3.1 4 ------- null}
h -t 0.231 -s 2 -d 3 -p cbr -e 500 -c 0 -i 18 -a 0 -x {1.0 3.1 -1 ------- null}
r -t 0.23104 -s 2 -d 0 -p ack -e 40 -c 1 -i 14 -a 1 -x {3.0 0.0 4 ------- null}
+ -t 0.23104 -s 0 -d 2 -p tcp -e 1040 -c 1 -i 23 -a 1 -x {0.0 3.0 9 ------- null}
+ -t 0.23104 -s 0 -d 2 -p tcp -e 1040 -c 1 -i 24 -a 1 -x {0.0 3.0 10 ------- null}
- -t 0.23104 -s 0 -d 2 -p tcp -e 1040 -c 1 -i 21 -a 1 -x {0.0 3.0 8 ------- null}
h -t 0.23104 -s 0 -d 2 -p tcp -e 1040 -c 1 -i 21 -a 1 -x {0.0 3.0 -1 ------- null}
r -t 0.232 -s 2 -d 3 -p cbr -e 500 -c 0 -i 13 -a 0 -x {1.0 3.1 2 ------- null}
r -t 0.23312 -s 2 -d 0 -p ack -e 40 -c 1 -i 15 -a 1 -x {3.0 0.0 5 ------- null}
+ -t 0.23312 -s 0 -d 2 -p tcp -e 1040 -c 1 -i 25 -a 1 -x {0.0 3.0 11 ------- null}
+ -t 0.23312 -s 0 -d 2 -p tcp -e 1040 -c 1 -i 26 -a 1 -x {0.0 3.0 12 ------- null}
- -t 0.23312 -s 0 -d 2 -p tcp -e 1040 -c 1 -i 23 -a 1 -x {0.0 3.0 9 ------- null}
h -t 0.23312 -s 0 -d 2 -p tcp -e 1040 -c 1 -i 23 -a 1 -x {0.0 3.0 -1 ------- null}
+ -t 0.235 -s 1 -d 2 -p cbr -e 500 -c 0 -i 27 -a 0 -x {1.0 3.1 7 ------- null}
- -t 0.235 -s 1 -d 2 -p cbr -e 500 -c 0 -i 27 -a 0 -x {1.0 3.1 7 ------- null}
h -t 0.235 -s 1 -d 2 -p cbr -e 500 -c 0 -i 27 -a 0 -x {1.0 3.1 -1 ------- null}
r -t 0.2352 -s 2 -d 0 -p ack -e 40 -c 1 -i 17 -a 1 -x {3.0 0.0 6 ------- null}
+ -t 0.2352 -s 0 -d 2 -p tcp -e 1040 -c 1 -i 28 -a 1 -x {0.0 3.0 13 ------- null}
+ -t 0.2352 -s 0 -d 2 -p tcp -e 1040 -c 1 -i 29 -a 1 -x {0.0 3.0 14 ------- null}
- -t 0.2352 -s 0 -d 2 -p tcp -e 1040 -c 1 -i 24 -a 1 -x {0.0 3.0 10 ------- null}
h -t 0.2352 -s 0 -d 2 -p tcp -e 1040 -c 1 -i 24 -a 1 -x {0.0 3.0 -1 ------- null}
r -t 0.236 -s 1 -d 2 -p cbr -e 500 -c 0 -i 19 -a 0 -x {1.0 3.1 5 ------- null}
+ -t 0.236 -s 2 -d 3 -p cbr -e 500 -c 0 -i 19 -a 0 -x {1.0 3.1 5 ------- null}
- -t 0.236 -s 2 -d 3 -p cbr -e 500 -c 0 -i 19 -a 0 -x {1.0 3.1 5 ------- null}
h -t 0.236 -s 2 -d 3 -p cbr -e 500 -c 0 -i 19 -a 0 -x {1.0 3.1 -1 ------- null}
r -t 0.237 -s 2 -d 3 -p cbr -e 500 -c 0 -i 16 -a 0 -x {1.0 3.1 3 ------- null}
- -t 0.23728 -s 0 -d 2 -p tcp -e 1040 -c 1 -i 25 -a 1 -x {0.0 3.0 11 ------- null}
h -t 0.23728 -s 0 -d 2 -p tcp -e 1040 -c 1 -i 25 -a 1 -x {0.0 3.0 -1 ------- null}
- -t 0.23936 -s 0 -d 2 -p tcp -e 1040 -c 1 -i 26 -a 1 -x {0.0 3.0 12 ------- null}
h -t 0.23936 -s 0 -d 2 -p tcp -e 1040 -c 1 -i 26 -a 1 -x {0.0 3.0 -1 ------- null}
+ -t 0.24 -s 1 -d 2 -p cbr -e 500 -c 0 -i 30 -a 0 -x {1.0 3.1 8 ------- null}
- -t 0.24 -s 1 -d 2 -p cbr -e 500 -c 0 -i 30 -a 0 -x {1.0 3.1 8 ------- null}
h -t 0.24 -s 1 -d 2 -p cbr -e 500 -c 0 -i 30 -a 0 -x {1.0 3.1 -1 ------- null}
r -t 0.241 -s 1 -d 2 -p cbr -e 500 -c 0 -i 22 -a 0 -x {1.0 3.1 6 ------- null}
+ -t 0.241 -s 2 -d 3 -p cbr -e 500 -c 0 -i 22 -a 0 -x {1.0 3.1 6 ------- null}
- -t 0.241 -s 2 -d 3 -p cbr -e 500 -c 0 -i 22 -a 0 -x {1.0 3.1 6 ------- null}
h -t 0.241 -s 2 -d 3 -p cbr -e 500 -c 0 -i 22 -a 0 -x {1.0 3.1 -1 ------- null}
r -t 0.24104 -s 0 -d 2 -p tcp -e 1040 -c 1 -i 20 -a 1 -x {0.0 3.0 7 ------- null}
+ -t 0.24104 -s 2 -d 3 -p tcp -e 1040 -c 1 -i 20 -a 1 -x {0.0 3.0 7 ------- null}
- -t 0.24144 -s 0 -d 2 -p tcp -e 1040 -c 1 -i 28 -a 1 -x {0.0 3.0 13 ------- null}
h -t 0.24144 -s 0 -d 2 -p tcp -e 1040 -c 1 -i 28 -a 1 -x {0.0 3.0 -1 ------- null}
r -t 0.242 -s 2 -d 3 -p cbr -e 500 -c 0 -i 18 -a 0 -x {1.0 3.1 4 ------- null}
- -t 0.242 -s 2 -d 3 -p tcp -e 1040 -c 1 -i 20 -a 1 -x {0.0 3.0 7 ------- null}
h -t 0.242 -s 2 -d 3 -p tcp -e 1040 -c 1 -i 20 -a 1 -x {0.0 3.0 -1 ------- null}
r -t 0.24312 -s 0 -d 2 -p tcp -e 1040 -c 1 -i 21 -a 1 -x {0.0 3.0 8 ------- null}
+ -t 0.24312 -s 2 -d 3 -p tcp -e 1040 -c 1 -i 21 -a 1 -x {0.0 3.0 8 ------- null}
- -t 0.24352 -s 0 -d 2 -p tcp -e 1040 -c 1 -i 29 -a 1 -x {0.0 3.0 14 ------- null}
h -t 0.24352 -s 0 -d 2 -p tcp -e 1040 -c 1 -i 29 -a 1 -x {0.0 3.0 -1 ------- null}
- -t 0.24408 -s 2 -d 3 -p tcp -e 1040 -c 1 -i 21 -a 1 -x {0.0 3.0 8 ------- null}
h -t 0.24408 -s 2 -d 3 -p tcp -e 1040 -c 1 -i 21 -a 1 -x {0.0 3.0 -1 ------- null}
+ -t 0.245 -s 1 -d 2 -p cbr -e 500 -c 0 -i 31 -a 0 -x {1.0 3.1 9 ------- null}
- -t 0.245 -s 1 -d 2 -p cbr -e 500 -c 0 -i 31 -a 0 -x {1.0 3.1 9 ------- null}
h -t 0.245 -s 1 -d 2 -p cbr -e 500 -c 0 -i 31 -a 0 -x {1.0 3.1 -1 ------- null}
r -t 0.2452 -s 0 -d 2 -p tcp -e 1040 -c 1 -i 23 -a 1 -x {0.0 3.0 9 ------- null}
+ -t 0.2452 -s 2 -d 3 -p tcp -e 1040 -c 1 -i 23 -a 1 -x {0.0 3.0 9 ------- null}
r -t 0.246 -s 1 -d 2 -p cbr -e 500 -c 0 -i 27 -a 0 -x {1.0 3.1 7 ------- null}
+ -t 0.246 -s 2 -d 3 -p cbr -e 500 -c 0 -i 27 -a 0 -x {1.0 3.1 7 ------- null}
- -t 0.24616 -s 2 -d 3 -p tcp -e 1040 -c 1 -i 23 -a 1 -x {0.0 3.0 9 ------- null}
h -t 0.24616 -s 2 -d 3 -p tcp -e 1040 -c 1 -i 23 -a 1 -x {0.0 3.0 -1 ------- null}
r -t 0.247 -s 2 -d 3 -p cbr -e 500 -c 0 -i 19 -a 0 -x {1.0 3.1 5 ------- null}
r -t 0.24728 -s 0 -d 2 -p tcp -e 1040 -c 1 -i 24 -a 1 -x {0.0 3.0 10 ------- null}
+ -t 0.24728 -s 2 -d 3 -p tcp -e 1040 -c 1 -i 24 -a 1 -x {0.0 3.0 10 ------- null}
- -t 0.24824 -s 2 -d 3 -p cbr -e 500 -c 0 -i 27 -a 0 -x {1.0 3.1 7 ------- null}
h -t 0.24824 -s 2 -d 3 -p cbr -e 500 -c 0 -i 27 -a 0 -x {1.0 3.1 -1 ------- null}
- -t 0.24924 -s 2 -d 3 -p tcp -e 1040 -c 1 -i 24 -a 1 -x {0.0 3.0 10 ------- null}
h -t 0.24924 -s 2 -d 3 -p tcp -e 1040 -c 1 -i 24 -a 1 -x {0.0 3.0 -1 ------- null}
r -t 0.24936 -s 0 -d 2 -p tcp -e 1040 -c 1 -i 25 -a 1 -x {0.0 3.0 11 ------- null}
+ -t 0.24936 -s 2 -d 3 -p tcp -e 1040 -c 1 -i 25 -a 1 -x {0.0 3.0 11 ------- null}
+ -t 0.25 -s 1 -d 2 -p cbr -e 500 -c 0 -i 32 -a 0 -x {1.0 3.1 10 ------- null}
- -t 0.25 -s 1 -d 2 -p cbr -e 500 -c 0 -i 32 -a 0 -x {1.0 3.1 10 ------- null}
h -t 0.25 -s 1 -d 2 -p cbr -e 500 -c 0 -i 32 -a 0 -x {1.0 3.1 -1 ------- null}
r -t 0.251 -s 1 -d 2 -p cbr -e 500 -c 0 -i 30 -a 0 -x {1.0 3.1 8 ------- null}
+ -t 0.251 -s 2 -d 3 -p cbr -e 500 -c 0 -i 30 -a 0 -x {1.0 3.1 8 ------- null}
- -t 0.25132 -s 2 -d 3 -p tcp -e 1040 -c 1 -i 25 -a 1 -x {0.0 3.0 11 ------- null}
h -t 0.25132 -s 2 -d 3 -p tcp -e 1040 -c 1 -i 25 -a 1 -x {0.0 3.0 -1 ------- null}
r -t 0.25144 -s 0 -d 2 -p tcp -e 1040 -c 1 -i 26 -a 1 -x {0.0 3.0 12 ------- null}
+ -t 0.25144 -s 2 -d 3 -p tcp -e 1040 -c 1 -i 26 -a 1 -x {0.0 3.0 12 ------- null}
r -t 0.252 -s 2 -d 3 -p cbr -e 500 -c 0 -i 22 -a 0 -x {1.0 3.1 6 ------- null}
- -t 0.2534 -s 2 -d 3 -p cbr -e 500 -c 0 -i 30 -a 0 -x {1.0 3.1 8 ------- null}
h -t 0.2534 -s 2 -d 3 -p cbr -e 500 -c 0 -i 30 -a 0 -x {1.0 3.1 -1 ------- null}
r -t 0.25352 -s 0 -d 2 -p tcp -e 1040 -c 1 -i 28 -a 1 -x {0.0 3.0 13 ------- null}
+ -t 0.25352 -s 2 -d 3 -p tcp -e 1040 -c 1 -i 28 -a 1 -x {0.0 3.0 13 ------- null}
r -t 0.25408 -s 2 -d 3 -p tcp -e 1040 -c 1 -i 20 -a 1 -x {0.0 3.0 7 ------- null}
+ -t 0.25408 -s 3 -d 2 -p ack -e 40 -c 1 -i 33 -a 1 -x {3.0 0.0 7 ------- null}
- -t 0.25408 -s 3 -d 2 -p ack -e 40 -c 1 -i 33 -a 1 -x {3.0 0.0 7 ------- null}
h -t 0.25408 -s 3 -d 2 -p ack -e 40 -c 1 -i 33 -a 1 -x {3.0 0.0 -1 ------- null}
- -t 0.2544 -s 2 -d 3 -p tcp -e 1040 -c 1 -i 26 -a 1 -x {0.0 3.0 12 ------- null}
h -t 0.2544 -s 2 -d 3 -p tcp -e 1040 -c 1 -i 26 -a 1 -x {0.0 3.0 -1 ------- null}
+ -t 0.255 -s 1 -d 2 -p cbr -e 500 -c 0 -i 34 -a 0 -x {1.0 3.1 11 ------- null}
- -t 0.255 -s 1 -d 2 -p cbr -e 500 -c 0 -i 34 -a 0 -x {1.0 3.1 11 ------- null}
h -t 0.255 -s 1 -d 2 -p cbr -e 500 -c 0 -i 34 -a 0 -x {1.0 3.1 -1 ------- null}
r -t 0.2556 -s 0 -d 2 -p tcp -e 1040 -c 1 -i 29 -a 1 -x {0.0 3.0 14 ------- null}
+ -t 0.2556 -s 2 -d 3 -p tcp -e 1040 -c 1 -i 29 -a 1 -x {0.0 3.0 14 ------- null}
r -t 0.256 -s 1 -d 2 -p cbr -e 500 -c 0 -i 31 -a 0 -x {1.0 3.1 9 ------- null}
+ -t 0.256 -s 2 -d 3 -p cbr -e 500 -c 0 -i 31 -a 0 -x {1.0 3.1 9 ------- null}
r -t 0.25616 -s 2 -d 3 -p tcp -e 1040 -c 1 -i 21 -a 1 -x {0.0 3.0 8 ------- null}
+ -t 0.25616 -s 3 -d 2 -p ack -e 40 -c 1 -i 35 -a 1 -x {3.0 0.0 8 ------- null}
- -t 0.25616 -s 3 -d 2 -p ack -e 40 -c 1 -i 35 -a 1 -x {3.0 0.0 8 ------- null}
h -t 0.25616 -s 3 -d 2 -p ack -e 40 -c 1 -i 35 -a 1 -x {3.0 0.0 -1 ------- null}
- -t 0.25648 -s 2 -d 3 -p tcp -e 1040 -c 1 -i 28 -a 1 -x {0.0 3.0 13 ------- null}
h -t 0.25648 -s 2 -d 3 -p tcp -e 1040 -c 1 -i 28 -a 1 -x {0.0 3.0 -1 ------- null}
r -t 0.25824 -s 2 -d 3 -p tcp -e 1040 -c 1 -i 23 -a 1 -x {0.0 3.0 9 ------- null}
+ -t 0.25824 -s 3 -d 2 -p ack -e 40 -c 1 -i 36 -a 1 -x {3.0 0.0 9 ------- null}
- -t 0.25824 -s 3 -d 2 -p ack -e 40 -c 1 -i 36 -a 1 -x {3.0 0.0 9 ------- null}
h -t 0.25824 -s 3 -d 2 -p ack -e 40 -c 1 -i 36 -a 1 -x {3.0 0.0 -1 ------- null}
- -t 0.25856 -s 2 -d 3 -p tcp -e 1040 -c 1 -i 29 -a 1 -x {0.0 3.0 14 ------- null}
h -t 0.25856 -s 2 -d 3 -p tcp -e 1040 -c 1 -i 29 -a 1 -x {0.0 3.0 -1 ------- null}
r -t 0.25924 -s 2 -d 3 -p cbr -e 500 -c 0 -i 27 -a 0 -x {1.0 3.1 7 ------- null}
+ -t 0.26 -s 1 -d 2 -p cbr -e 500 -c 0 -i 37 -a 0 -x {1.0 3.1 12 ------- null}
- -t 0.26 -s 1 -d 2 -p cbr -e 500 -c 0 -i 37 -a 0 -x {1.0 3.1 12 ------- null}
h -t 0.26 -s 1 -d 2 -p cbr -e 500 -c 0 -i 37 -a 0 -x {1.0 3.1 -1 ------- null}
- -t 0.26064 -s 2 -d 3 -p cbr -e 500 -c 0 -i 31 -a 0 -x {1.0 3.1 9 ------- null}
h -t 0.26064 -s 2 -d 3 -p cbr -e 500 -c 0 -i 31 -a 0 -x {1.0 3.1 -1 ------- null}
r -t 0.261 -s 1 -d 2 -p cbr -e 500 -c 0 -i 32 -a 0 -x {1.0 3.1 10 ------- null}
+ -t 0.261 -s 2 -d 3 -p cbr -e 500 -c 0 -i 32 -a 0 -x {1.0 3.1 10 ------- null}
r -t 0.26132 -s 2 -d 3 -p tcp -e 1040 -c 1 -i 24 -a 1 -x {0.0 3.0 10 ------- null}
+ -t 0.26132 -s 3 -d 2 -p ack -e 40 -c 1 -i 38 -a 1 -x {3.0 0.0 10 ------- null}
- -t 0.26132 -s 3 -d 2 -p ack -e 40 -c 1 -i 38 -a 1 -x {3.0 0.0 10 ------- null}
h -t 0.26132 -s 3 -d 2 -p ack -e 40 -c 1 -i 38 -a 1 -x {3.0 0.0 -1 ------- null}
- -t 0.26164 -s 2 -d 3 -p cbr -e 500 -c 0 -i 32 -a 0 -x {1.0 3.1 10 ------- null}
h -t 0.26164 -s 2 -d 3 -p cbr -e 500 -c 0 -i 32 -a 0 -x {1.0 3.1 -1 ------- null}
r -t 0.2634 -s 2 -d 3 -p tcp -e 1040 -c 1 -i 25 -a 1 -x {0.0 3.0 11 ------- null}
+ -t 0.2634 -s 3 -d 2 -p ack -e 40 -c 1 -i 39 -a 1 -x {3.0 0.0 11 ------- null}
- -t 0.2634 -s 3 -d 2 -p ack -e 40 -c 1 -i 39 -a 1 -x {3.0 0.0 11 ------- null}
h -t 0.2634 -s 3 -d 2 -p ack -e 40 -c 1 -i 39 -a 1 -x {3.0 0.0 -1 ------- null}
r -t 0.26416 -s 3 -d 2 -p ack -e 40 -c 1 -i 33 -a 1 -x {3.0 0.0 7 ------- null}
+ -t 0.26416 -s 2 -d 0 -p ack -e 40 -c 1 -i 33 -a 1 -x {3.0 0.0 7 ------- null}
- -t 0.26416 -s 2 -d 0 -p ack -e 40 -c 1 -i 33 -a 1 -x {3.0 0.0 7 ------- null}
h -t 0.26416 -s 2 -d 0 -p ack -e 40 -c 1 -i 33 -a 1 -x {3.0 0.0 -1 ------- null}
r -t 0.2644 -s 2 -d 3 -p cbr -e 500 -c 0 -i 30 -a 0 -x {1.0 3.1 8 ------- null}
+ -t 0.265 -s 1 -d 2 -p cbr -e 500 -c 0 -i 40 -a 0 -x {1.0 3.1 13 ------- null}
- -t 0.265 -s 1 -d 2 -p cbr -e 500 -c 0 -i 40 -a 0 -x {1.0 3.1 13 ------- null}
h -t 0.265 -s 1 -d 2 -p cbr -e 500 -c 0 -i 40 -a 0 -x {1.0 3.1 -1 ------- null}
r -t 0.266 -s 1 -d 2 -p cbr -e 500 -c 0 -i 34 -a 0 -x {1.0 3.1 11 ------- null}
+ -t 0.266 -s 2 -d 3 -p cbr -e 500 -c 0 -i 34 -a 0 -x {1.0 3.1 11 ------- null}
- -t 0.266 -s 2 -d 3 -p cbr -e 500 -c 0 -i 34 -a 0 -x {1.0 3.1 11 ------- null}
h -t 0.266 -s 2 -d 3 -p cbr -e 500 -c 0 -i 34 -a 0 -x {1.0 3.1 -1 ------- null}
r -t 0.26624 -s 3 -d 2 -p ack -e 40 -c 1 -i 35 -a 1 -x {3.0 0.0 8 ------- null}
+ -t 0.26624 -s 2 -d 0 -p ack -e 40 -c 1 -i 35 -a 1 -x {3.0 0.0 8 ------- null}
- -t 0.26624 -s 2 -d 0 -p ack -e 40 -c 1 -i 35 -a 1 -x {3.0 0.0 8 ------- null}
h -t 0.26624 -s 2 -d 0 -p ack -e 40 -c 1 -i 35 -a 1 -x {3.0 0.0 -1 ------- null}
r -t 0.26648 -s 2 -d 3 -p tcp -e 1040 -c 1 -i 26 -a 1 -x {0.0 3.0 12 ------- null}
+ -t 0.26648 -s 3 -d 2 -p ack -e 40 -c 1 -i 41 -a 1 -x {3.0 0.0 12 ------- null}
- -t 0.26648 -s 3 -d 2 -p ack -e 40 -c 1 -i 41 -a 1 -x {3.0 0.0 12 ------- null}
h -t 0.26648 -s 3 -d 2 -p ack -e 40 -c 1 -i 41 -a 1 -x {3.0 0.0 -1 ------- null}
r -t 0.26832 -s 3 -d 2 -p ack -e 40 -c 1 -i 36 -a 1 -x {3.0 0.0 9 ------- null}
+ -t 0.26832 -s 2 -d 0 -p ack -e 40 -c 1 -i 36 -a 1 -x {3.0 0.0 9 ------- null}
- -t 0.26832 -s 2 -d 0 -p ack -e 40 -c 1 -i 36 -a 1 -x {3.0 0.0 9 ------- null}
h -t 0.26832 -s 2 -d 0 -p ack -e 40 -c 1 -i 36 -a 1 -x {3.0 0.0 -1 ------- null}
r -t 0.26856 -s 2 -d 3 -p tcp -e 1040 -c 1 -i 28 -a 1 -x {0.0 3.0 13 ------- null}
+ -t 0.26856 -s 3 -d 2 -p ack -e 40 -c 1 -i 42 -a 1 -x {3.0 0.0 13 ------- null}
- -t 0.26856 -s 3 -d 2 -p ack -e 40 -c 1 -i 42 -a 1 -x {3.0 0.0 13 ------- null}
h -t 0.26856 -s 3 -d 2 -p ack -e 40 -c 1 -i 42 -a 1 -x {3.0 0.0 -1 ------- null}
+ -t 0.27 -s 1 -d 2 -p cbr -e 500 -c 0 -i 43 -a 0 -x {1.0 3.1 14 ------- null}
- -t 0.27 -s 1 -d 2 -p cbr -e 500 -c 0 -i 43 -a 0 -x {1.0 3.1 14 ------- null}
h -t 0.27 -s 1 -d 2 -p cbr -e 500 -c 0 -i 43 -a 0 -x {1.0 3.1 -1 ------- null}
r -t 0.27064 -s 2 -d 3 -p tcp -e 1040 -c 1 -i 29 -a 1 -x {0.0 3.0 14 ------- null}
+ -t 0.27064 -s 3 -d 2 -p ack -e 40 -c 1 -i 44 -a 1 -x {3.0 0.0 14 ------- null}
- -t 0.27064 -s 3 -d 2 -p ack -e 40 -c 1 -i 44 -a 1 -x {3.0 0.0 14 ------- null}
h -t 0.27064 -s 3 -d 2 -p ack -e 40 -c 1 -i 44 -a 1 -x {3.0 0.0 -1 ------- null}
r -t 0.271 -s 1 -d 2 -p cbr -e 500 -c 0 -i 37 -a 0 -x {1.0 3.1 12 ------- null}
+ -t 0.271 -s 2 -d 3 -p cbr -e 500 -c 0 -i 37 -a 0 -x {1.0 3.1 12 ------- null}
- -t 0.271 -s 2 -d 3 -p cbr -e 500 -c 0 -i 37 -a 0 -x {1.0 3.1 12 ------- null}
h -t 0.271 -s 2 -d 3 -p cbr -e 500 -c 0 -i 37 -a 0 -x {1.0 3.1 -1 ------- null}
r -t 0.2714 -s 3 -d 2 -p ack -e 40 -c 1 -i 38 -a 1 -x {3.0 0.0 10 ------- null}
+ -t 0.2714 -s 2 -d 0 -p ack -e 40 -c 1 -i 38 -a 1 -x {3.0 0.0 10 ------- null}
- -t 0.2714 -s 2 -d 0 -p ack -e 40 -c 1 -i 38 -a 1 -x {3.0 0.0 10 ------- null}
h -t 0.2714 -s 2 -d 0 -p ack -e 40 -c 1 -i 38 -a 1 -x {3.0 0.0 -1 ------- null}
r -t 0.27164 -s 2 -d 3 -p cbr -e 500 -c 0 -i 31 -a 0 -x {1.0 3.1 9 ------- null}
r -t 0.27264 -s 2 -d 3 -p cbr -e 500 -c 0 -i 32 -a 0 -x {1.0 3.1 10 ------- null}
r -t 0.27348 -s 3 -d 2 -p ack -e 40 -c 1 -i 39 -a 1 -x {3.0 0.0 11 ------- null}
+ -t 0.27348 -s 2 -d 0 -p ack -e 40 -c 1 -i 39 -a 1 -x {3.0 0.0 11 ------- null}
- -t 0.27348 -s 2 -d 0 -p ack -e 40 -c 1 -i 39 -a 1 -x {3.0 0.0 11 ------- null}
h -t 0.27348 -s 2 -d 0 -p ack -e 40 -c 1 -i 39 -a 1 -x {3.0 0.0 -1 ------- null}
r -t 0.27424 -s 2 -d 0 -p ack -e 40 -c 1 -i 33 -a 1 -x {3.0 0.0 7 ------- null}
+ -t 0.27424 -s 0 -d 2 -p tcp -e 1040 -c 1 -i 45 -a 1 -x {0.0 3.0 15 ------- null}
- -t 0.27424 -s 0 -d 2 -p tcp -e 1040 -c 1 -i 45 -a 1 -x {0.0 3.0 15 ------- null}
h -t 0.27424 -s 0 -d 2 -p tcp -e 1040 -c 1 -i 45 -a 1 -x {0.0 3.0 -1 ------- null}
+ -t 0.27424 -s 0 -d 2 -p tcp -e 1040 -c 1 -i 46 -a 1 -x {0.0 3.0 16 ------- null}
+ -t 0.275 -s 1 -d 2 -p cbr -e 500 -c 0 -i 47 -a 0 -x {1.0 3.1 15 ------- null}
- -t 0.275 -s 1 -d 2 -p cbr -e 500 -c 0 -i 47 -a 0 -x {1.0 3.1 15 ------- null}
h -t 0.275 -s 1 -d 2 -p cbr -e 500 -c 0 -i 47 -a 0 -x {1.0 3.1 -1 ------- null}
r -t 0.276 -s 1 -d 2 -p cbr -e 500 -c 0 -i 40 -a 0 -x {1.0 3.1 13 ------- null}
+ -t 0.276 -s 2 -d 3 -p cbr -e 500 -c 0 -i 40 -a 0 -x {1.0 3.1 13 ------- null}
- -t 0.276 -s 2 -d 3 -p cbr -e 500 -c 0 -i 40 -a 0 -x {1.0 3.1 13 ------- null}
h -t 0.276 -s 2 -d 3 -p cbr -e 500 -c 0 -i 40 -a 0 -x {1.0 3.1 -1 ------- null}
r -t 0.27632 -s 2 -d 0 -p ack -e 40 -c 1 -i 35 -a 1 -x {3.0 0.0 8 ------- null}
+ -t 0.27632 -s 0 -d 2 -p tcp -e 1040 -c 1 -i 48 -a 1 -x {0.0 3.0 17 ------- null}
+ -t 0.27632 -s 0 -d 2 -p tcp -e 1040 -c 1 -i 49 -a 1 -x {0.0 3.0 18 ------- null}
- -t 0.27632 -s 0 -d 2 -p tcp -e 1040 -c 1 -i 46 -a 1 -x {0.0 3.0 16 ------- null}
h -t 0.27632 -s 0 -d 2 -p tcp -e 1040 -c 1 -i 46 -a 1 -x {0.0 3.0 -1 ------- null}
r -t 0.27656 -s 3 -d 2 -p ack -e 40 -c 1 -i 41 -a 1 -x {3.0 0.0 12 ------- null}
+ -t 0.27656 -s 2 -d 0 -p ack -e 40 -c 1 -i 41 -a 1 -x {3.0 0.0 12 ------- null}
- -t 0.27656 -s 2 -d 0 -p ack -e 40 -c 1 -i 41 -a 1 -x {3.0 0.0 12 ------- null}
h -t 0.27656 -s 2 -d 0 -p ack -e 40 -c 1 -i 41 -a 1 -x {3.0 0.0 -1 ------- null}
r -t 0.277 -s 2 -d 3 -p cbr -e 500 -c 0 -i 34 -a 0 -x {1.0 3.1 11 ------- null}
r -t 0.2784 -s 2 -d 0 -p ack -e 40 -c 1 -i 36 -a 1 -x {3.0 0.0 9 ------- null}
+ -t 0.2784 -s 0 -d 2 -p tcp -e 1040 -c 1 -i 50 -a 1 -x {0.0 3.0 19 ------- null}
+ -t 0.2784 -s 0 -d 2 -p tcp -e 1040 -c 1 -i 51 -a 1 -x {0.0 3.0 20 ------- null}
- -t 0.2784 -s 0 -d 2 -p tcp -e 1040 -c 1 -i 48 -a 1 -x {0.0 3.0 17 ------- null}
h -t 0.2784 -s 0 -d 2 -p tcp -e 1040 -c 1 -i 48 -a 1 -x {0.0 3.0 -1 ------- null}
r -t 0.27864 -s 3 -d 2 -p ack -e 40 -c 1 -i 42 -a 1 -x {3.0 0.0 13 ------- null}
+ -t 0.27864 -s 2 -d 0 -p ack -e 40 -c 1 -i 42 -a 1 -x {3.0 0.0 13 ------- null}
- -t 0.27864 -s 2 -d 0 -p ack -e 40 -c 1 -i 42 -a 1 -x {3.0 0.0 13 ------- null}
h -t 0.27864 -s 2 -d 0 -p ack -e 40 -c 1 -i 42 -a 1 -x {3.0 0.0 -1 ------- null}
+ -t 0.28 -s 1 -d 2 -p cbr -e 500 -c 0 -i 52 -a 0 -x {1.0 3.1 16 ------- null}
- -t 0.28 -s 1 -d 2 -p cbr -e 500 -c 0 -i 52 -a 0 -x {1.0 3.1 16 ------- null}
h -t 0.28 -s 1 -d 2 -p cbr -e 500 -c 0 -i 52 -a 0 -x {1.0 3.1 -1 ------- null}
- -t 0.28048 -s 0 -d 2 -p tcp -e 1040 -c 1 -i 49 -a 1 -x {0.0 3.0 18 ------- null}
h -t 0.28048 -s 0 -d 2 -p tcp -e 1040 -c 1 -i 49 -a 1 -x {0.0 3.0 -1 ------- null}
r -t 0.28072 -s 3 -d 2 -p ack -e 40 -c 1 -i 44 -a 1 -x {3.0 0.0 14 ------- null}